
  ___ ___ ___ _ _ _  
 |   |   |_  | | | | 
 | | | | | . | | | | 
 |__ |  _|___|_____|  19.8.1
 |___|_|             

User:   sjliang@nid02305
Date:   Tue Dec  3 16:38:44 2019
Arch:   x86_64
Pid:    276362
Python: 3.6.9
gpaw:   /global/homes/s/sjliang/.conda/envs/gpaw/lib/python3.6/site-packages/gpaw
_gpaw:  /global/homes/s/sjliang/.conda/envs/gpaw/bin/gpaw-python (54c2d0d863)
ase:    /global/homes/s/sjliang/.conda/envs/gpaw/lib/python3.6/site-packages/ase (version 3.18.1)
numpy:  /global/homes/s/sjliang/.conda/envs/gpaw/lib/python3.6/site-packages/numpy (version 1.17.4)
scipy:  /global/homes/s/sjliang/.conda/envs/gpaw/lib/python3.6/site-packages/scipy (version 1.3.1)
libxc:  4.2.3
units:  Angstrom and eV
cores:  16

Input parameters:
  basis: dzp
  h: 0.3
  nbands: 1

System changes: positions, numbers, cell, pbc, initial_charges, initial_magmoms 

Initialize ...

H-setup:
  name: Hydrogen
  id: 4766778ce56282eaa64abeb28b7c1de3
  Z: 1
  valence: 1
  core: 0
  charge: 0.0
  file: /global/homes/s/sjliang/gpaw/gpaw-setups-0.9.20000/H.LDA
  compensation charges: gauss, rc=0.15, lmax=2
  cutoffs: 0.85(filt), 0.53(core),
  valence states:
                energy  radius
    1s(1.00)    -6.353   0.476
    *s          20.858   0.476
    *p           0.000   0.476

  LCAO basis set for H:
    Name: dzp
    File: /global/homes/s/sjliang/gpaw/gpaw-setups-0.9.20000/H.dzp.basis
    Number of radial functions: 3
    Number of spherical harmonics: 5
      l=0, rc=6.4219 Bohr: 1s-sz confined orbital
      l=0, rc=3.6094 Bohr: 1s-dz split-valence wave
      l=1, rc=6.4219 Bohr: p-type Gaussian polarization

Reference energy: -24.257917

Spin-paired calculation

Occupation numbers:
  Fermi-Dirac: width=0.0000 eV

Convergence criteria:
  Maximum total energy change: 0.0005 eV / electron
  Maximum integral of absolute density change: 0.0001 electrons
  Maximum integral of absolute eigenstate change: 4e-08 eV^2
  Maximum number of iterations: 333

Symmetries present (total): 1

  ( 1  0  0)
  ( 0  1  0)
  ( 0  0  1)

1 k-point (Gamma)
1 k-point in the irreducible part of the Brillouin zone
       k-points in crystal coordinates                weights
   0:     0.00000000    0.00000000    0.00000000          1/1

Wave functions: Uniform real-space grid
  Kinetic energy operator: 6*3+1=19 point O(h^6) finite-difference Laplacian
  ScaLapack parameters: grid=1x1, blocksize=None
  Wavefunction extrapolation:
    Improved wavefunction reuse through dual PAW basis 

Eigensolver
   Davidson(niter=2, smin=None, normalize=True) 

Densities:
  Coarse grid: 28*28*28 grid
  Fine grid: 56*56*56 grid
  Total Charge: 0.000000 

Density mixing:
  Method: separate
  Backend: pulay
  Linear mixing parameter: 0.25
  Mixing with 3 old densities
  No damping of long wave oscillations 

Hamiltonian:
  XC and Coulomb potentials evaluated on a 56*56*56 grid
  Using the LDA Exchange-Correlation functional
  Interpolation: tri-quintic (5. degree polynomial)
  Poisson solver: FastPoissonSolver using
    6*3+1=19 point O(h^6) finite-difference Laplacian stencil;
    FFT axes: [];
    FST axes: [0, 1, 2].
 

Memory estimate:
  Process memory now: 118.02 MiB
  Calculator: 0.50 MiB
    Density: 0.29 MiB
      Arrays: 0.23 MiB
      Localized functions: 0.01 MiB
      Mixer: 0.05 MiB
    Hamiltonian: 0.15 MiB
      Arrays: 0.15 MiB
      XC: 0.00 MiB
      Poisson: 0.00 MiB
      vbar: 0.00 MiB
    Wavefunctions: 0.05 MiB
      Arrays psit_nG: 0.01 MiB
      Eigensolver: 0.05 MiB
      Projections: 0.00 MiB
      Projectors: 0.00 MiB

Total number of cores used: 16
Domain decomposition: 4 x 2 x 2

Number of atoms: 2
Number of atomic orbitals: 10
Number of bands in calculation: 1
Bands to converge: occupied states only
Number of valence electrons: 2

... initialized

Initializing position-dependent things.

Density initialized from atomic densities
Creating initial wave functions:
  1 band from LCAO basis set

      .-------------------.  
     /|                   |  
    / |                   |  
   /  |                   |  
  /   |                   |  
 *    |                   |  
 |    |                   |  
 |    |                   |  
 |    |       H           |  
 |    |                   |  
 |    |                   |  
 |    .-------------------.  
 |   /                   /   
 |  /                   /    
 | /                   /     
 |/                   /      
 *-------------------*       

Positions:
   0 H      4.000000    4.000000    4.000000    ( 0.0000,  0.0000,  0.0000)
   1 H      4.000000    4.000000    4.754000    ( 0.0000,  0.0000,  0.0000)

Unit cell:
           periodic     x           y           z      points  spacing
  1. axis:    no     8.000000    0.000000    0.000000    28     0.2857
  2. axis:    no     0.000000    8.000000    0.000000    28     0.2857
  3. axis:    no     0.000000    0.000000    8.754000    28     0.3126

  Lengths:   8.000000   8.000000   8.754000
  Angles:   90.000000  90.000000  90.000000

Effective grid spacing dv^(1/3) = 0.2944

                     log10-error:    total        iterations:
           time      wfs    density  energy       fermi  poisson
iter:   1  16:39:04  -0.04   +inf    -6.622536    0      1      
iter:   2  16:39:04  -1.01  -0.51    -6.422398    0      1      
iter:   3  16:39:04  -0.62  -0.67    -6.241602    0      1      
iter:   4  16:39:04  -1.57  -1.74    -6.241549    0      1      
iter:   5  16:39:04  -1.88  -1.85    -6.241434    0      1      
iter:   6  16:39:05  -2.94  -2.05    -6.241300    0      1      
iter:   7  16:39:05  -3.17  -2.22    -6.241400    0      1      
iter:   8  16:39:05  -3.78  -2.74    -6.241395    0      1      
iter:   9  16:39:05  -4.59  -3.44    -6.241394    0      1      
iter:  10  16:39:06  -5.14  -3.97    -6.241394    0      1      
iter:  11  16:39:06  -5.67  -4.03    -6.241394    0      1      
iter:  12  16:39:06  -6.18  -4.52    -6.241394    0      1      
iter:  13  16:39:06  -6.75  -4.84    -6.241394    0      1      
iter:  14  16:39:06  -7.37  -4.96    -6.241394    0      1      
iter:  15  16:39:07  -7.93  -5.15    -6.241394    0      1      

Converged after 15 iterations.

Dipole moment: (0.000000, 0.000000, 0.000000) |e|*Ang

Energy contributions relative to reference atoms: (reference = -24.257917)

Kinetic:         +8.885298
Potential:       -9.213248
External:        +0.000000
XC:              -5.002449
Entropy (-ST):   +0.000000
Local:           -0.910995
--------------------------
Free energy:     -6.241394
Extrapolated:    -6.241394

 Band  Eigenvalues  Occupancy
    0    -10.17390    2.00000

Writing to h2_diss_gs.gpw (mode='all')

Timing:                              incl.     excl.
-----------------------------------------------------------
Hamiltonian:                         0.176     0.001   0.0% |
 Atomic:                             0.002     0.002   0.0% |
  XC Correction:                     0.000     0.000   0.0% |
 Calculate atomic Hamiltonians:      0.001     0.001   0.0% |
 Communicate:                        0.054     0.054   0.2% |
 Hartree integrate/restrict:         0.002     0.002   0.0% |
 Initialize Hamiltonian:             0.000     0.000   0.0% |
 Poisson:                            0.103     0.001   0.0% |
  Communicate bwd 0:                 0.023     0.023   0.1% |
  Communicate bwd 1:                 0.024     0.024   0.1% |
  Communicate fwd 0:                 0.024     0.024   0.1% |
  Communicate fwd 1:                 0.024     0.024   0.1% |
  fft:                               0.002     0.002   0.0% |
  fft2:                              0.004     0.004   0.0% |
 XC 3D grid:                         0.012     0.012   0.1% |
 vbar:                               0.001     0.001   0.0% |
LCAO initialization:                 0.198     0.148   0.6% |
 LCAO eigensolver:                   0.028     0.001   0.0% |
  Calculate projections:             0.000     0.000   0.0% |
  DenseAtomicCorrection:             0.000     0.000   0.0% |
  Distribute overlap matrix:         0.001     0.001   0.0% |
  Orbital Layouts:                   0.024     0.024   0.1% |
  Potential matrix:                  0.000     0.000   0.0% |
 LCAO to grid:                       0.001     0.001   0.0% |
 Set positions (LCAO WFS):           0.022     0.010   0.0% |
  Basic WFS set positions:           0.001     0.001   0.0% |
  Basis functions set positions:     0.000     0.000   0.0% |
  P tci:                             0.002     0.002   0.0% |
  ST tci:                            0.004     0.004   0.0% |
  mktci:                             0.004     0.004   0.0% |
SCF-cycle:                           3.084     0.048   0.2% |
 Davidson:                           0.441     0.128   0.5% |
  Apply hamiltonian:                 0.009     0.009   0.0% |
  Subspace diag:                     0.062     0.009   0.0% |
   calc_h_matrix:                    0.030     0.022   0.1% |
    Apply hamiltonian:               0.008     0.008   0.0% |
   diagonalize:                      0.013     0.013   0.1% |
   rotate_psi:                       0.010     0.010   0.0% |
  calc. matrices:                    0.200     0.177   0.8% |
   Apply hamiltonian:                0.022     0.022   0.1% |
  diagonalize:                       0.027     0.027   0.1% |
  rotate_psi:                        0.016     0.016   0.1% |
 Density:                            0.154     0.002   0.0% |
  Atomic density matrices:           0.059     0.059   0.2% |
  Mix:                               0.072     0.072   0.3% |
  Multipole moments:                 0.014     0.014   0.1% |
  Pseudo density:                    0.007     0.006   0.0% |
   Symmetrize density:               0.001     0.001   0.0% |
 Hamiltonian:                        2.437     0.008   0.0% |
  Atomic:                            0.034     0.033   0.1% |
   XC Correction:                    0.001     0.001   0.0% |
  Calculate atomic Hamiltonians:     0.018     0.018   0.1% |
  Communicate:                       0.736     0.736   3.1% ||
  Hartree integrate/restrict:        0.026     0.026   0.1% |
  Poisson:                           1.443     0.021   0.1% |
   Communicate bwd 0:                0.321     0.321   1.4% ||
   Communicate bwd 1:                0.343     0.343   1.5% ||
   Communicate fwd 0:                0.333     0.333   1.4% ||
   Communicate fwd 1:                0.340     0.340   1.4% ||
   fft:                              0.027     0.027   0.1% |
   fft2:                             0.058     0.058   0.2% |
  XC 3D grid:                        0.166     0.166   0.7% |
  vbar:                              0.006     0.006   0.0% |
 Orthonormalize:                     0.005     0.001   0.0% |
  calc_s_matrix:                     0.001     0.001   0.0% |
  inverse-cholesky:                  0.002     0.002   0.0% |
  projections:                       0.000     0.000   0.0% |
  rotate_psi_s:                      0.000     0.000   0.0% |
Set symmetry:                        0.008     0.008   0.0% |
Other:                              20.075    20.075  85.3% |---------------------------------|
-----------------------------------------------------------
Total:                                        23.541 100.0%

Memory usage: 143.60 MiB
Date: Tue Dec  3 16:39:07 2019
