
  ___ ___ ___ _ _ _  
 |   |   |_  | | | | 
 | | | | | . | | | | 
 |__ |  _|___|_____|  19.8.1
 |___|_|             

User:   sjliang@nid02305
Date:   Tue Dec  3 16:45:05 2019
Arch:   x86_64
Pid:    276618
Python: 3.6.9
gpaw:   /global/homes/s/sjliang/.conda/envs/gpaw/lib/python3.6/site-packages/gpaw
_gpaw:  /global/homes/s/sjliang/.conda/envs/gpaw/bin/gpaw-python (54c2d0d863)
ase:    /global/homes/s/sjliang/.conda/envs/gpaw/lib/python3.6/site-packages/ase (version 3.18.1)
numpy:  /global/homes/s/sjliang/.conda/envs/gpaw/lib/python3.6/site-packages/numpy (version 1.17.4)
scipy:  /global/homes/s/sjliang/.conda/envs/gpaw/lib/python3.6/site-packages/scipy (version 1.3.1)
libxc:  4.2.3
units:  Angstrom and eV
cores:  16

Reading from h2_diss_gs.gpw
Read dipole, energy, free_energy
Reading input parameters:
  basis: dzp
  h: 0.3
  nbands: 1

Initialize ...

H-setup:
  name: Hydrogen
  id: 4766778ce56282eaa64abeb28b7c1de3
  Z: 1
  valence: 1
  core: 0
  charge: 0.0
  file: /global/homes/s/sjliang/gpaw/gpaw-setups-0.9.20000/H.LDA
  compensation charges: gauss, rc=0.15, lmax=2
  cutoffs: 0.85(filt), 0.53(core),
  valence states:
                energy  radius
    1s(1.00)    -6.353   0.476
    *s          20.858   0.476
    *p           0.000   0.476

  LCAO basis set for H:
    Name: dzp
    File: /global/homes/s/sjliang/gpaw/gpaw-setups-0.9.20000/H.dzp.basis
    Number of radial functions: 3
    Number of spherical harmonics: 5
      l=0, rc=6.4219 Bohr: 1s-sz confined orbital
      l=0, rc=3.6094 Bohr: 1s-dz split-valence wave
      l=1, rc=6.4219 Bohr: p-type Gaussian polarization

Reference energy: -24.257917

Spin-paired calculation

Occupation numbers:
  Fermi-Dirac: width=0.0000 eV

Convergence criteria:
  Maximum total energy change: 0.0005 eV / electron
  Maximum integral of absolute density change: 0.0001 electrons
  Maximum integral of absolute eigenstate change: 4e-08 eV^2
  Maximum number of iterations: 333

Symmetries present (total): 1

  ( 1  0  0)
  ( 0  1  0)
  ( 0  0  1)

1 k-point (Gamma)
1 k-point in the irreducible part of the Brillouin zone
       k-points in crystal coordinates                weights
   0:     0.00000000    0.00000000    0.00000000          1/1

Wave functions: Uniform real-space grid
  Kinetic energy operator: 6*3+1=19 point O(h^6) finite-difference Laplacian
  ScaLapack parameters: grid=1x1, blocksize=None
  Wavefunction extrapolation:
    Wavefunctions kept unchanged if atoms move 

Eigensolver
   Davidson(niter=2, smin=None, normalize=True) 

Densities:
  Coarse grid: 28*28*28 grid
  Fine grid: 56*56*56 grid
  Total Charge: 0.000000 

No density mixing

Hamiltonian:
  XC and Coulomb potentials evaluated on a 56*56*56 grid
  Using the LDA Exchange-Correlation functional
  Interpolation: tri-quintic (5. degree polynomial)
  Poisson solver: FastPoissonSolver using
    6*3+1=19 point O(h^6) finite-difference Laplacian stencil;
    FFT axes: [];
    FST axes: [0, 1, 2].
 

Memory estimate:
  Process memory now: 117.81 MiB
  Calculator: 0.50 MiB
    Density: 0.24 MiB
      Arrays: 0.23 MiB
      Localized functions: 0.01 MiB
      Mixer: 0.00 MiB
    Hamiltonian: 0.15 MiB
      Arrays: 0.15 MiB
      XC: 0.00 MiB
      Poisson: 0.00 MiB
      vbar: 0.00 MiB
    Wavefunctions: 0.11 MiB
      Arrays psit_nG: 0.02 MiB
      Eigensolver: 0.09 MiB
      Projections: 0.00 MiB
      Projectors: 0.00 MiB

Total number of cores used: 16
Domain decomposition: 4 x 2 x 2

Number of atoms: 2
Number of atomic orbitals: 10
Number of bands in calculation: 1
Bands to converge: occupied states only
Number of valence electrons: 2

... initialized

Initializing position-dependent things.

Density initialized from wave functions
      .-------------------.  
     /|                   |  
    / |                   |  
   /  |                   |  
  /   |                   |  
 *    |                   |  
 |    |                   |  
 |    |                   |  
 |    |       H           |  
 |    |                   |  
 |    |                   |  
 |    .-------------------.  
 |   /                   /   
 |  /                   /    
 | /                   /     
 |/                   /      
 *-------------------*       

Positions:
   0 H      4.000000    4.000000    4.000000    ( 0.0000,  0.0000,  0.0000)
   1 H      4.000000    4.000000    4.754000    ( 0.0000,  0.0000,  0.0000)



------------------------------------------
  Time-propagation TDDFT                  
------------------------------------------

Charge epsilon:  1e-05
Solver:  BiCGStab
Preconditioner:  None
Propagator:  EFSICN
States per processor =  1

Forces in eV/Ang:
  0 H    -0.00000   -0.00000   -7.76153
  1 H    -0.00000   -0.00000    7.76153

Initializing position-dependent things.

Density initialized from wave functions
      .-------------------.  
     /|                   |  
    / |                   |  
   /  |                   |  
  /   |                   |  
 *    |                   |  
 |    |                   |  
 |    |                   |  
 |    |       H           |  
 |    |                   |  
 |    |                   |  
 |    .-------------------.  
 |   /                   /   
 |  /                   /    
 | /                   /     
 |/                   /      
 *-------------------*       

Positions:
   0 H      4.000000    4.000000    4.000000    ( 0.0000,  0.0000,  0.0000)
   1 H      4.000000    4.000000    4.754000    ( 0.0000,  0.0000,  0.0000)


Forces in eV/Ang:
  0 H    -0.00000   -0.00000   -7.76153
  1 H    -0.00000   -0.00000    7.76153

Initializing position-dependent things.

Density initialized from wave functions
      .-------------------.  
     /|                   |  
    / |                   |  
   /  |                   |  
  /   |                   |  
 *    |                   |  
 |    |                   |  
 |    |                   |  
 |    |       H           |  
 |    |                   |  
 |    |                   |  
 |    .-------------------.  
 |   /                   /   
 |  /                   /    
 | /                   /     
 |/                   /      
 *-------------------*       

Positions:
   0 H      4.000000    4.000000    3.999999    ( 0.0000,  0.0000,  0.0000)
   1 H      4.000000    4.000000    4.754001    ( 0.0000,  0.0000,  0.0000)


Forces in eV/Ang:
  0 H    -0.00000   -0.00000   -7.76117
  1 H    -0.00000   -0.00000    7.76117

Initializing position-dependent things.

Density initialized from wave functions
      .-------------------.  
     /|                   |  
    / |                   |  
   /  |                   |  
  /   |                   |  
 *    |                   |  
 |    |                   |  
 |    |                   |  
 |    |       H           |  
 |    |                   |  
 |    |                   |  
 |    .-------------------.  
 |   /                   /   
 |  /                   /    
 | /                   /     
 |/                   /      
 *-------------------*       

Positions:
   0 H      4.000000    4.000000    3.999999    ( 0.0000,  0.0000,  0.0000)
   1 H      4.000000    4.000000    4.754001    ( 0.0000,  0.0000,  0.0000)


Forces in eV/Ang:
  0 H    -0.00000   -0.00000   -8.26334
  1 H    -0.00000   -0.00000    7.53039

Initializing position-dependent things.

Density initialized from wave functions
      .-------------------.  
     /|                   |  
    / |                   |  
   /  |                   |  
  /   |                   |  
 *    |                   |  
 |    |                   |  
 |    |                   |  
 |    |       H           |  
 |    |                   |  
 |    |                   |  
 |    .-------------------.  
 |   /                   /   
 |  /                   /    
 | /                   /     
 |/                   /      
 *-------------------*       

Positions:
   0 H      4.000000    4.000000    3.999996    ( 0.0000,  0.0000,  0.0000)
   1 H      4.000000    4.000000    4.754004    ( 0.0000,  0.0000,  0.0000)


Forces in eV/Ang:
  0 H    -0.00000   -0.00000   -8.26222
  1 H    -0.00000   -0.00000    7.52930

Initializing position-dependent things.

Density initialized from wave functions
      .-------------------.  
     /|                   |  
    / |                   |  
   /  |                   |  
  /   |                   |  
 *    |                   |  
 |    |                   |  
 |    |                   |  
 |    |       H           |  
 |    |                   |  
 |    |                   |  
 |    .-------------------.  
 |   /                   /   
 |  /                   /    
 | /                   /     
 |/                   /      
 *-------------------*       

Positions:
   0 H      4.000000    4.000000    3.999996    ( 0.0000,  0.0000,  0.0000)
   1 H      4.000000    4.000000    4.754004    ( 0.0000,  0.0000,  0.0000)


Forces in eV/Ang:
  0 H    -0.00000   -0.00000   -8.26222
  1 H    -0.00000   -0.00000    7.52930

Initializing position-dependent things.

Density initialized from wave functions
      .-------------------.  
     /|                   |  
    / |                   |  
   /  |                   |  
  /   |                   |  
 *    |                   |  
 |    |                   |  
 |    |                   |  
 |    |       H           |  
 |    |                   |  
 |    |                   |  
 |    .-------------------.  
 |   /                   /   
 |  /                   /    
 | /                   /     
 |/                   /      
 *-------------------*       

Positions:
   0 H      4.000000    4.000000    3.999991    ( 0.0000,  0.0000,  0.0000)
   1 H      4.000000    4.000000    4.754008    ( 0.0000,  0.0000,  0.0000)


Forces in eV/Ang:
  0 H    -0.00000   -0.00000   -8.26034
  1 H    -0.00000   -0.00000    7.52750

Initializing position-dependent things.

Density initialized from wave functions
      .-------------------.  
     /|                   |  
    / |                   |  
   /  |                   |  
  /   |                   |  
 *    |                   |  
 |    |                   |  
 |    |                   |  
 |    |       H           |  
 |    |                   |  
 |    |                   |  
 |    .-------------------.  
 |   /                   /   
 |  /                   /    
 | /                   /     
 |/                   /      
 *-------------------*       

Positions:
   0 H      4.000000    4.000000    3.999991    ( 0.0000,  0.0000,  0.0000)
   1 H      4.000000    4.000000    4.754008    ( 0.0000,  0.0000,  0.0000)


Forces in eV/Ang:
  0 H    -0.00000   -0.00000   -9.71793
  1 H    -0.00000   -0.00000    6.89480

Initializing position-dependent things.

Density initialized from wave functions
      .-------------------.  
     /|                   |  
    / |                   |  
   /  |                   |  
  /   |                   |  
 *    |                   |  
 |    |                   |  
 |    |                   |  
 |    |       H           |  
 |    |                   |  
 |    |                   |  
 |    .-------------------.  
 |   /                   /   
 |  /                   /    
 | /                   /     
 |/                   /      
 *-------------------*       

Positions:
   0 H      4.000000    4.000000    3.999984    ( 0.0000,  0.0000,  0.0000)
   1 H      4.000000    4.000000    4.754015    ( 0.0000,  0.0000,  0.0000)


Forces in eV/Ang:
  0 H     0.00000   -0.00000   -9.71520
  1 H    -0.00000   -0.00000    6.89232

Initializing position-dependent things.

Density initialized from wave functions
      .-------------------.  
     /|                   |  
    / |                   |  
   /  |                   |  
  /   |                   |  
 *    |                   |  
 |    |                   |  
 |    |                   |  
 |    |       H           |  
 |    |                   |  
 |    |                   |  
 |    .-------------------.  
 |   /                   /   
 |  /                   /    
 | /                   /     
 |/                   /      
 *-------------------*       

Positions:
   0 H      4.000000    4.000000    3.999984    ( 0.0000,  0.0000,  0.0000)
   1 H      4.000000    4.000000    4.754015    ( 0.0000,  0.0000,  0.0000)


Forces in eV/Ang:
  0 H     0.00000   -0.00000   -9.71520
  1 H    -0.00000   -0.00000    6.89232

Initializing position-dependent things.

Density initialized from wave functions
      .-------------------.  
     /|                   |  
    / |                   |  
   /  |                   |  
  /   |                   |  
 *    |                   |  
 |    |                   |  
 |    |                   |  
 |    |       H           |  
 |    |                   |  
 |    |                   |  
 |    .-------------------.  
 |   /                   /   
 |  /                   /    
 | /                   /     
 |/                   /      
 *-------------------*       

Positions:
   0 H      4.000000    4.000000    3.999975    ( 0.0000,  0.0000,  0.0000)
   1 H      4.000000    4.000000    4.754022    ( 0.0000,  0.0000,  0.0000)


Forces in eV/Ang:
  0 H    -0.00000   -0.00000   -9.71158
  1 H    -0.00000   -0.00000    6.88915

Initializing position-dependent things.

Density initialized from wave functions
      .-------------------.  
     /|                   |  
    / |                   |  
   /  |                   |  
  /   |                   |  
 *    |                   |  
 |    |                   |  
 |    |                   |  
 |    |       H           |  
 |    |                   |  
 |    |                   |  
 |    .-------------------.  
 |   /                   /   
 |  /                   /    
 | /                   /     
 |/                   /      
 *-------------------*       

Positions:
   0 H      4.000000    4.000000    3.999975    ( 0.0000,  0.0000,  0.0000)
   1 H      4.000000    4.000000    4.754022    ( 0.0000,  0.0000,  0.0000)


Forces in eV/Ang:
  0 H    -0.00000   -0.00000  -12.01007
  1 H    -0.00000   -0.00000    6.00753

Initializing position-dependent things.

Density initialized from wave functions
      .-------------------.  
     /|                   |  
    / |                   |  
   /  |                   |  
  /   |                   |  
 *    |                   |  
 |    |                   |  
 |    |                   |  
 |    |       H           |  
 |    |                   |  
 |    |                   |  
 |    .-------------------.  
 |   /                   /   
 |  /                   /    
 | /                   /     
 |/                   /      
 *-------------------*       

Positions:
   0 H      4.000000    4.000000    3.999963    ( 0.0000,  0.0000,  0.0000)
   1 H      4.000000    4.000000    4.754032    ( 0.0000,  0.0000,  0.0000)


Forces in eV/Ang:
  0 H    -0.00000   -0.00000  -12.00541
  1 H    -0.00000   -0.00000    6.00376

Initializing position-dependent things.

Density initialized from wave functions
      .-------------------.  
     /|                   |  
    / |                   |  
   /  |                   |  
  /   |                   |  
 *    |                   |  
 |    |                   |  
 |    |                   |  
 |    |       H           |  
 |    |                   |  
 |    |                   |  
 |    .-------------------.  
 |   /                   /   
 |  /                   /    
 | /                   /     
 |/                   /      
 *-------------------*       

Positions:
   0 H      4.000000    4.000000    3.999963    ( 0.0000,  0.0000,  0.0000)
   1 H      4.000000    4.000000    4.754032    ( 0.0000,  0.0000,  0.0000)


Forces in eV/Ang:
  0 H    -0.00000   -0.00000  -12.00541
  1 H    -0.00000   -0.00000    6.00376

Initializing position-dependent things.

Density initialized from wave functions
      .-------------------.  
     /|                   |  
    / |                   |  
   /  |                   |  
  /   |                   |  
 *    |                   |  
 |    |                   |  
 |    |                   |  
 |    |       H           |  
 |    |                   |  
 |    |                   |  
 |    .-------------------.  
 |   /                   /   
 |  /                   /    
 | /                   /     
 |/                   /      
 *-------------------*       

Positions:
   0 H      4.000000    4.000000    3.999948    ( 0.0000,  0.0000,  0.0000)
   1 H      4.000000    4.000000    4.754043    ( 0.0000,  0.0000,  0.0000)


Forces in eV/Ang:
  0 H    -0.00000   -0.00000  -11.99968
  1 H    -0.00000   -0.00000    5.99934

Initializing position-dependent things.

Density initialized from wave functions
      .-------------------.  
     /|                   |  
    / |                   |  
   /  |                   |  
  /   |                   |  
 *    |                   |  
 |    |                   |  
 |    |                   |  
 |    |       H           |  
 |    |                   |  
 |    |                   |  
 |    .-------------------.  
 |   /                   /   
 |  /                   /    
 | /                   /     
 |/                   /      
 *-------------------*       

Positions:
   0 H      4.000000    4.000000    3.999948    ( 0.0000,  0.0000,  0.0000)
   1 H      4.000000    4.000000    4.754043    ( 0.0000,  0.0000,  0.0000)


Forces in eV/Ang:
  0 H    -0.00000   -0.00000  -15.01317
  1 H    -0.00000   -0.00000    5.05233

Initializing position-dependent things.

Density initialized from wave functions
      .-------------------.  
     /|                   |  
    / |                   |  
   /  |                   |  
  /   |                   |  
 *    |                   |  
 |    |                   |  
 |    |                   |  
 |    |       H           |  
 |    |                   |  
 |    |                   |  
 |    .-------------------.  
 |   /                   /   
 |  /                   /    
 | /                   /     
 |/                   /      
 *-------------------*       

Positions:
   0 H      4.000000    4.000000    3.999930    ( 0.0000,  0.0000,  0.0000)
   1 H      4.000000    4.000000    4.754055    ( 0.0000,  0.0000,  0.0000)


Forces in eV/Ang:
  0 H    -0.00000    0.00000  -15.00609
  1 H    -0.00000   -0.00000    5.04739

Initializing position-dependent things.

Density initialized from wave functions
      .-------------------.  
     /|                   |  
    / |                   |  
   /  |                   |  
  /   |                   |  
 *    |                   |  
 |    |                   |  
 |    |                   |  
 |    |       H           |  
 |    |                   |  
 |    |                   |  
 |    .-------------------.  
 |   /                   /   
 |  /                   /    
 | /                   /     
 |/                   /      
 *-------------------*       

Positions:
   0 H      4.000000    4.000000    3.999930    ( 0.0000,  0.0000,  0.0000)
   1 H      4.000000    4.000000    4.754055    ( 0.0000,  0.0000,  0.0000)


Forces in eV/Ang:
  0 H    -0.00000    0.00000  -15.00609
  1 H    -0.00000   -0.00000    5.04739

Initializing position-dependent things.

Density initialized from wave functions
      .-------------------.  
     /|                   |  
    / |                   |  
   /  |                   |  
  /   |                   |  
 *    |                   |  
 |    |                   |  
 |    |                   |  
 |    |       H           |  
 |    |                   |  
 |    |                   |  
 |    .-------------------.  
 |   /                   /   
 |  /                   /    
 | /                   /     
 |/                   /      
 *-------------------*       

Positions:
   0 H      4.000000    4.000000    3.999909    ( 0.0000,  0.0000,  0.0000)
   1 H      4.000000    4.000000    4.754069    ( 0.0000,  0.0000,  0.0000)


Forces in eV/Ang:
  0 H    -0.00000   -0.00000  -14.99768
  1 H     0.00000   -0.00000    5.04184

Initializing position-dependent things.

Density initialized from wave functions
      .-------------------.  
     /|                   |  
    / |                   |  
   /  |                   |  
  /   |                   |  
 *    |                   |  
 |    |                   |  
 |    |                   |  
 |    |       H           |  
 |    |                   |  
 |    |                   |  
 |    .-------------------.  
 |   /                   /   
 |  /                   /    
 | /                   /     
 |/                   /      
 *-------------------*       

Positions:
   0 H      4.000000    4.000000    3.999909    ( 0.0000,  0.0000,  0.0000)
   1 H      4.000000    4.000000    4.754069    ( 0.0000,  0.0000,  0.0000)


Forces in eV/Ang:
  0 H    -0.00000    0.00000  -18.61315
  1 H    -0.00000   -0.00000    4.18787

Initializing position-dependent things.

Density initialized from wave functions
      .-------------------.  
     /|                   |  
    / |                   |  
   /  |                   |  
  /   |                   |  
 *    |                   |  
 |    |                   |  
 |    |                   |  
 |    |       H           |  
 |    |                   |  
 |    |                   |  
 |    .-------------------.  
 |   /                   /   
 |  /                   /    
 | /                   /     
 |/                   /      
 *-------------------*       

Positions:
   0 H      4.000000    4.000000    3.999883    ( 0.0000,  0.0000,  0.0000)
   1 H      4.000000    4.000000    4.754083    ( 0.0000,  0.0000,  0.0000)


Forces in eV/Ang:
  0 H    -0.00000   -0.00000  -18.60300
  1 H     0.00000   -0.00000    4.18186

Initializing position-dependent things.

Density initialized from wave functions
      .-------------------.  
     /|                   |  
    / |                   |  
   /  |                   |  
  /   |                   |  
 *    |                   |  
 |    |                   |  
 |    |                   |  
 |    |       H           |  
 |    |                   |  
 |    |                   |  
 |    .-------------------.  
 |   /                   /   
 |  /                   /    
 | /                   /     
 |/                   /      
 *-------------------*       

Positions:
   0 H      4.000000    4.000000    3.999883    ( 0.0000,  0.0000,  0.0000)
   1 H      4.000000    4.000000    4.754083    ( 0.0000,  0.0000,  0.0000)


Forces in eV/Ang:
  0 H    -0.00000   -0.00000  -18.60300
  1 H     0.00000   -0.00000    4.18186

Initializing position-dependent things.

Density initialized from wave functions
      .-------------------.  
     /|                   |  
    / |                   |  
   /  |                   |  
  /   |                   |  
 *    |                   |  
 |    |                   |  
 |    |                   |  
 |    |       H           |  
 |    |                   |  
 |    |                   |  
 |    .-------------------.  
 |   /                   /   
 |  /                   /    
 | /                   /     
 |/                   /      
 *-------------------*       

Positions:
   0 H      4.000000    4.000000    3.999853    ( 0.0000,  0.0000,  0.0000)
   1 H      4.000000    4.000000    4.754099    ( 0.0000,  0.0000,  0.0000)


Forces in eV/Ang:
  0 H    -0.00000   -0.00000  -18.59119
  1 H    -0.00000   -0.00000    4.17527

Initializing position-dependent things.

Density initialized from wave functions
      .-------------------.  
     /|                   |  
    / |                   |  
   /  |                   |  
  /   |                   |  
 *    |                   |  
 |    |                   |  
 |    |                   |  
 |    |       H           |  
 |    |                   |  
 |    |                   |  
 |    .-------------------.  
 |   /                   /   
 |  /                   /    
 | /                   /     
 |/                   /      
 *-------------------*       

Positions:
   0 H      4.000000    4.000000    3.999853    ( 0.0000,  0.0000,  0.0000)
   1 H      4.000000    4.000000    4.754099    ( 0.0000,  0.0000,  0.0000)


Forces in eV/Ang:
  0 H    -0.00000   -0.00000  -22.68813
  1 H    -0.00000   -0.00000    3.52645

Initializing position-dependent things.

Density initialized from wave functions
      .-------------------.  
     /|                   |  
    / |                   |  
   /  |                   |  
  /   |                   |  
 *    |                   |  
 |    |                   |  
 |    |                   |  
 |    |       H           |  
 |    |                   |  
 |    |                   |  
 |    .-------------------.  
 |   /                   /   
 |  /                   /    
 | /                   /     
 |/                   /      
 *-------------------*       

Positions:
   0 H      4.000000    4.000000    3.999818    ( 0.0000,  0.0000,  0.0000)
   1 H      4.000000    4.000000    4.754115    ( 0.0000,  0.0000,  0.0000)


Forces in eV/Ang:
  0 H    -0.00000   -0.00000  -22.67414
  1 H    -0.00000   -0.00000    3.51943

Initializing position-dependent things.

Density initialized from wave functions
      .-------------------.  
     /|                   |  
    / |                   |  
   /  |                   |  
  /   |                   |  
 *    |                   |  
 |    |                   |  
 |    |                   |  
 |    |       H           |  
 |    |                   |  
 |    |                   |  
 |    .-------------------.  
 |   /                   /   
 |  /                   /    
 | /                   /     
 |/                   /      
 *-------------------*       

Positions:
   0 H      4.000000    4.000000    3.999818    ( 0.0000,  0.0000,  0.0000)
   1 H      4.000000    4.000000    4.754115    ( 0.0000,  0.0000,  0.0000)


Forces in eV/Ang:
  0 H    -0.00000   -0.00000  -22.67414
  1 H    -0.00000   -0.00000    3.51943

Initializing position-dependent things.

Density initialized from wave functions
      .-------------------.  
     /|                   |  
    / |                   |  
   /  |                   |  
  /   |                   |  
 *    |                   |  
 |    |                   |  
 |    |                   |  
 |    |       H           |  
 |    |                   |  
 |    |                   |  
 |    .-------------------.  
 |   /                   /   
 |  /                   /    
 | /                   /     
 |/                   /      
 *-------------------*       

Positions:
   0 H      4.000000    4.000000    3.999778    ( 0.0000,  0.0000,  0.0000)
   1 H      4.000000    4.000000    4.754132    ( 0.0000,  0.0000,  0.0000)


Forces in eV/Ang:
  0 H    -0.00000   -0.00000  -22.65809
  1 H    -0.00000   -0.00000    3.51183

Initializing position-dependent things.

Density initialized from wave functions
      .-------------------.  
     /|                   |  
    / |                   |  
   /  |                   |  
  /   |                   |  
 *    |                   |  
 |    |                   |  
 |    |                   |  
 |    |       H           |  
 |    |                   |  
 |    |                   |  
 |    .-------------------.  
 |   /                   /   
 |  /                   /    
 | /                   /     
 |/                   /      
 *-------------------*       

Positions:
   0 H      4.000000    4.000000    3.999778    ( 0.0000,  0.0000,  0.0000)
   1 H      4.000000    4.000000    4.754132    ( 0.0000,  0.0000,  0.0000)


Forces in eV/Ang:
  0 H    -0.00000   -0.00000  -27.07481
  1 H    -0.00000   -0.00000    3.14454

Initializing position-dependent things.

Density initialized from wave functions
      .-------------------.  
     /|                   |  
    / |                   |  
   /  |                   |  
  /   |                   |  
 *    |                   |  
 |    |                   |  
 |    |                   |  
 |    |       H           |  
 |    |                   |  
 |    |                   |  
 |    .-------------------.  
 |   /                   /   
 |  /                   /    
 | /                   /     
 |/                   /      
 *-------------------*       

Positions:
   0 H      4.000000    4.000000    3.999731    ( 0.0000,  0.0000,  0.0000)
   1 H      4.000000    4.000000    4.754151    ( 0.0000,  0.0000,  0.0000)


Forces in eV/Ang:
  0 H    -0.00000   -0.00000  -27.05612
  1 H     0.00000   -0.00000    3.13651

Initializing position-dependent things.

Density initialized from wave functions
      .-------------------.  
     /|                   |  
    / |                   |  
   /  |                   |  
  /   |                   |  
 *    |                   |  
 |    |                   |  
 |    |                   |  
 |    |       H           |  
 |    |                   |  
 |    |                   |  
 |    .-------------------.  
 |   /                   /   
 |  /                   /    
 | /                   /     
 |/                   /      
 *-------------------*       

Positions:
   0 H      4.000000    4.000000    3.999731    ( 0.0000,  0.0000,  0.0000)
   1 H      4.000000    4.000000    4.754151    ( 0.0000,  0.0000,  0.0000)


Forces in eV/Ang:
  0 H    -0.00000   -0.00000  -27.05612
  1 H     0.00000   -0.00000    3.13651

Initializing position-dependent things.

Density initialized from wave functions
      .-------------------.  
     /|                   |  
    / |                   |  
   /  |                   |  
  /   |                   |  
 *    |                   |  
 |    |                   |  
 |    |                   |  
 |    |       H           |  
 |    |                   |  
 |    |                   |  
 |    .-------------------.  
 |   /                   /   
 |  /                   /    
 | /                   /     
 |/                   /      
 *-------------------*       

Positions:
   0 H      4.000000    4.000000    3.999679    ( 0.0000,  0.0000,  0.0000)
   1 H      4.000000    4.000000    4.754169    ( 0.0000,  0.0000,  0.0000)


Forces in eV/Ang:
  0 H    -0.00000   -0.00000  -27.03491
  1 H    -0.00000   -0.00000    3.12786

Initializing position-dependent things.

Density initialized from wave functions
      .-------------------.  
     /|                   |  
    / |                   |  
   /  |                   |  
  /   |                   |  
 *    |                   |  
 |    |                   |  
 |    |                   |  
 |    |       H           |  
 |    |                   |  
 |    |                   |  
 |    .-------------------.  
 |   /                   /   
 |  /                   /    
 | /                   /     
 |/                   /      
 *-------------------*       

Positions:
   0 H      4.000000    4.000000    3.999679    ( 0.0000,  0.0000,  0.0000)
   1 H      4.000000    4.000000    4.754169    ( 0.0000,  0.0000,  0.0000)


Forces in eV/Ang:
  0 H    -0.00000   -0.00000  -31.56351
  1 H     0.00000   -0.00000    3.10193

Initializing position-dependent things.

Density initialized from wave functions
      .-------------------.  
     /|                   |  
    / |                   |  
   /  |                   |  
  /   |                   |  
 *    |                   |  
 |    |                   |  
 |    |                   |  
 |    |       H           |  
 |    |                   |  
 |    |                   |  
 |    .-------------------.  
 |   /                   /   
 |  /                   /    
 | /                   /     
 |/                   /      
 *-------------------*       

Positions:
   0 H      4.000000    4.000000    3.999619    ( 0.0000,  0.0000,  0.0000)
   1 H      4.000000    4.000000    4.754189    ( 0.0000,  0.0000,  0.0000)


Forces in eV/Ang:
  0 H    -0.00000   -0.00000  -31.53922
  1 H    -0.00000   -0.00000    3.09282

Initializing position-dependent things.

Density initialized from wave functions
      .-------------------.  
     /|                   |  
    / |                   |  
   /  |                   |  
  /   |                   |  
 *    |                   |  
 |    |                   |  
 |    |                   |  
 |    |       H           |  
 |    |                   |  
 |    |                   |  
 |    .-------------------.  
 |   /                   /   
 |  /                   /    
 | /                   /     
 |/                   /      
 *-------------------*       

Positions:
   0 H      4.000000    4.000000    3.999619    ( 0.0000,  0.0000,  0.0000)
   1 H      4.000000    4.000000    4.754189    ( 0.0000,  0.0000,  0.0000)


Forces in eV/Ang:
  0 H    -0.00000   -0.00000  -31.53922
  1 H    -0.00000   -0.00000    3.09282

Initializing position-dependent things.

Density initialized from wave functions
      .-------------------.  
     /|                   |  
    / |                   |  
   /  |                   |  
  /   |                   |  
 *    |                   |  
 |    |                   |  
 |    |                   |  
 |    |       H           |  
 |    |                   |  
 |    |                   |  
 |    .-------------------.  
 |   /                   /   
 |  /                   /    
 | /                   /     
 |/                   /      
 *-------------------*       

Positions:
   0 H      4.000000    4.000000    3.999551    ( 0.0000,  0.0000,  0.0000)
   1 H      4.000000    4.000000    4.754209    ( 0.0000,  0.0000,  0.0000)


Forces in eV/Ang:
  0 H    -0.00000   -0.00000  -31.51195
  1 H    -0.00000   -0.00000    3.08303

Initializing position-dependent things.

Density initialized from wave functions
      .-------------------.  
     /|                   |  
    / |                   |  
   /  |                   |  
  /   |                   |  
 *    |                   |  
 |    |                   |  
 |    |                   |  
 |    |       H           |  
 |    |                   |  
 |    |                   |  
 |    .-------------------.  
 |   /                   /   
 |  /                   /    
 | /                   /     
 |/                   /      
 *-------------------*       

Positions:
   0 H      4.000000    4.000000    3.999551    ( 0.0000,  0.0000,  0.0000)
   1 H      4.000000    4.000000    4.754209    ( 0.0000,  0.0000,  0.0000)


Forces in eV/Ang:
  0 H    -0.00000   -0.00000  -35.93097
  1 H    -0.00000   -0.00000    3.44943

Initializing position-dependent things.

Density initialized from wave functions
      .-------------------.  
     /|                   |  
    / |                   |  
   /  |                   |  
  /   |                   |  
 *    |                   |  
 |    |                   |  
 |    |                   |  
 |    |       H           |  
 |    |                   |  
 |    |                   |  
 |    .-------------------.  
 |   /                   /   
 |  /                   /    
 | /                   /     
 |/                   /      
 *-------------------*       

Positions:
   0 H      4.000000    4.000000    3.999476    ( 0.0000,  0.0000,  0.0000)
   1 H      4.000000    4.000000    4.754230    ( 0.0000,  0.0000,  0.0000)


Forces in eV/Ang:
  0 H    -0.00000   -0.00000  -35.90021
  1 H    -0.00000   -0.00000    3.43910

Initializing position-dependent things.

Density initialized from wave functions
      .-------------------.  
     /|                   |  
    / |                   |  
   /  |                   |  
  /   |                   |  
 *    |                   |  
 |    |                   |  
 |    |                   |  
 |    |       H           |  
 |    |                   |  
 |    |                   |  
 |    .-------------------.  
 |   /                   /   
 |  /                   /    
 | /                   /     
 |/                   /      
 *-------------------*       

Positions:
   0 H      4.000000    4.000000    3.999476    ( 0.0000,  0.0000,  0.0000)
   1 H      4.000000    4.000000    4.754230    ( 0.0000,  0.0000,  0.0000)


Forces in eV/Ang:
  0 H    -0.00000   -0.00000  -35.90021
  1 H    -0.00000   -0.00000    3.43910

Initializing position-dependent things.

Density initialized from wave functions
      .-------------------.  
     /|                   |  
    / |                   |  
   /  |                   |  
  /   |                   |  
 *    |                   |  
 |    |                   |  
 |    |                   |  
 |    |       H           |  
 |    |                   |  
 |    |                   |  
 |    .-------------------.  
 |   /                   /   
 |  /                   /    
 | /                   /     
 |/                   /      
 *-------------------*       

Positions:
   0 H      4.000000    4.000000    3.999392    ( 0.0000,  0.0000,  0.0000)
   1 H      4.000000    4.000000    4.754252    ( 0.0000,  0.0000,  0.0000)


Forces in eV/Ang:
  0 H     0.00000   -0.00000  -35.86599
  1 H     0.00000   -0.00000    3.42800

Initializing position-dependent things.

Density initialized from wave functions
      .-------------------.  
     /|                   |  
    / |                   |  
   /  |                   |  
  /   |                   |  
 *    |                   |  
 |    |                   |  
 |    |                   |  
 |    |       H           |  
 |    |                   |  
 |    |                   |  
 |    .-------------------.  
 |   /                   /   
 |  /                   /    
 | /                   /     
 |/                   /      
 *-------------------*       

Positions:
   0 H      4.000000    4.000000    3.999392    ( 0.0000,  0.0000,  0.0000)
   1 H      4.000000    4.000000    4.754252    ( 0.0000,  0.0000,  0.0000)


Forces in eV/Ang:
  0 H    -0.00000   -0.00000  -39.98409
  1 H    -0.00000    0.00000    4.22143

Initializing position-dependent things.

Density initialized from wave functions
      .-------------------.  
     /|                   |  
    / |                   |  
   /  |                   |  
  /   |                   |  
 *    |                   |  
 |    |                   |  
 |    |                   |  
 |    |       H           |  
 |    |                   |  
 |    |                   |  
 |    .-------------------.  
 |   /                   /   
 |  /                   /    
 | /                   /     
 |/                   /      
 *-------------------*       

Positions:
   0 H      4.000000    4.000000    3.999299    ( 0.0000,  0.0000,  0.0000)
   1 H      4.000000    4.000000    4.754275    ( 0.0000,  0.0000,  0.0000)


Forces in eV/Ang:
  0 H    -0.00000   -0.00000  -39.94602
  1 H    -0.00000   -0.00000    4.20968

Initializing position-dependent things.

Density initialized from wave functions
      .-------------------.  
     /|                   |  
    / |                   |  
   /  |                   |  
  /   |                   |  
 *    |                   |  
 |    |                   |  
 |    |                   |  
 |    |       H           |  
 |    |                   |  
 |    |                   |  
 |    .-------------------.  
 |   /                   /   
 |  /                   /    
 | /                   /     
 |/                   /      
 *-------------------*       

Positions:
   0 H      4.000000    4.000000    3.999299    ( 0.0000,  0.0000,  0.0000)
   1 H      4.000000    4.000000    4.754275    ( 0.0000,  0.0000,  0.0000)


Forces in eV/Ang:
  0 H    -0.00000   -0.00000  -39.94602
  1 H    -0.00000   -0.00000    4.20968

Initializing position-dependent things.

Density initialized from wave functions
      .-------------------.  
     /|                   |  
    / |                   |  
   /  |                   |  
  /   |                   |  
 *    |                   |  
 |    |                   |  
 |    |                   |  
 |    |       H           |  
 |    |                   |  
 |    |                   |  
 |    .-------------------.  
 |   /                   /   
 |  /                   /    
 | /                   /     
 |/                   /      
 *-------------------*       

Positions:
   0 H      4.000000    4.000000    3.999196    ( 0.0000,  0.0000,  0.0000)
   1 H      4.000000    4.000000    4.754299    ( 0.0000,  0.0000,  0.0000)


Forces in eV/Ang:
  0 H    -0.00000   -0.00000  -39.90406
  1 H    -0.00000    0.00000    4.19706

Initializing position-dependent things.

Density initialized from wave functions
      .-------------------.  
     /|                   |  
    / |                   |  
   /  |                   |  
  /   |                   |  
 *    |                   |  
 |    |                   |  
 |    |                   |  
 |    |       H           |  
 |    |                   |  
 |    |                   |  
 |    .-------------------.  
 |   /                   /   
 |  /                   /    
 | /                   /     
 |/                   /      
 *-------------------*       

Positions:
   0 H      4.000000    4.000000    3.999196    ( 0.0000,  0.0000,  0.0000)
   1 H      4.000000    4.000000    4.754299    ( 0.0000,  0.0000,  0.0000)


Forces in eV/Ang:
  0 H    -0.00000   -0.00000  -43.58188
  1 H    -0.00000    0.00000    5.42253

Initializing position-dependent things.

Density initialized from wave functions
      .-------------------.  
     /|                   |  
    / |                   |  
   /  |                   |  
  /   |                   |  
 *    |                   |  
 |    |                   |  
 |    |                   |  
 |    |       H           |  
 |    |                   |  
 |    |                   |  
 |    .-------------------.  
 |   /                   /   
 |  /                   /    
 | /                   /     
 |/                   /      
 *-------------------*       

Positions:
   0 H      4.000000    4.000000    3.999083    ( 0.0000,  0.0000,  0.0000)
   1 H      4.000000    4.000000    4.754324    ( 0.0000,  0.0000,  0.0000)


Forces in eV/Ang:
  0 H    -0.00000   -0.00000  -43.53581
  1 H     0.00000   -0.00000    5.40911

Initializing position-dependent things.

Density initialized from wave functions
      .-------------------.  
     /|                   |  
    / |                   |  
   /  |                   |  
  /   |                   |  
 *    |                   |  
 |    |                   |  
 |    |                   |  
 |    |       H           |  
 |    |                   |  
 |    |                   |  
 |    .-------------------.  
 |   /                   /   
 |  /                   /    
 | /                   /     
 |/                   /      
 *-------------------*       

Positions:
   0 H      4.000000    4.000000    3.999083    ( 0.0000,  0.0000,  0.0000)
   1 H      4.000000    4.000000    4.754324    ( 0.0000,  0.0000,  0.0000)


Forces in eV/Ang:
  0 H    -0.00000   -0.00000  -43.53581
  1 H     0.00000   -0.00000    5.40911

Initializing position-dependent things.

Density initialized from wave functions
      .-------------------.  
     /|                   |  
    / |                   |  
   /  |                   |  
  /   |                   |  
 *    |                   |  
 |    |                   |  
 |    |                   |  
 |    |       H           |  
 |    |                   |  
 |    |                   |  
 |    .-------------------.  
 |   /                   /   
 |  /                   /    
 | /                   /     
 |/                   /      
 *-------------------*       

Positions:
   0 H      4.000000    4.000000    3.998960    ( 0.0000,  0.0000,  0.0000)
   1 H      4.000000    4.000000    4.754351    ( 0.0000,  0.0000,  0.0000)


Forces in eV/Ang:
  0 H    -0.00000   -0.00000  -43.48543
  1 H    -0.00000   -0.00000    5.39471

Initializing position-dependent things.

Density initialized from wave functions
      .-------------------.  
     /|                   |  
    / |                   |  
   /  |                   |  
  /   |                   |  
 *    |                   |  
 |    |                   |  
 |    |                   |  
 |    |       H           |  
 |    |                   |  
 |    |                   |  
 |    .-------------------.  
 |   /                   /   
 |  /                   /    
 | /                   /     
 |/                   /      
 *-------------------*       

Positions:
   0 H      4.000000    4.000000    3.998960    ( 0.0000,  0.0000,  0.0000)
   1 H      4.000000    4.000000    4.754351    ( 0.0000,  0.0000,  0.0000)


Forces in eV/Ang:
  0 H    -0.00000   -0.00000  -46.62463
  1 H    -0.00000   -0.00000    7.01725

Initializing position-dependent things.

Density initialized from wave functions
      .-------------------.  
     /|                   |  
    / |                   |  
   /  |                   |  
  /   |                   |  
 *    |                   |  
 |    |                   |  
 |    |                   |  
 |    |       H           |  
 |    |                   |  
 |    |                   |  
 |    .-------------------.  
 |   /                   /   
 |  /                   /    
 | /                   /     
 |/                   /      
 *-------------------*       

Positions:
   0 H      4.000000    4.000000    3.998826    ( 0.0000,  0.0000,  0.0000)
   1 H      4.000000    4.000000    4.754378    ( 0.0000,  0.0000,  0.0000)


Forces in eV/Ang:
  0 H    -0.00000   -0.00000  -46.57005
  1 H    -0.00000   -0.00000    7.00186

Initializing position-dependent things.

Density initialized from wave functions
      .-------------------.  
     /|                   |  
    / |                   |  
   /  |                   |  
  /   |                   |  
 *    |                   |  
 |    |                   |  
 |    |                   |  
 |    |       H           |  
 |    |                   |  
 |    |                   |  
 |    .-------------------.  
 |   /                   /   
 |  /                   /    
 | /                   /     
 |/                   /      
 *-------------------*       

Positions:
   0 H      4.000000    4.000000    3.998826    ( 0.0000,  0.0000,  0.0000)
   1 H      4.000000    4.000000    4.754378    ( 0.0000,  0.0000,  0.0000)


Forces in eV/Ang:
  0 H    -0.00000   -0.00000  -46.57005
  1 H    -0.00000   -0.00000    7.00186

Initializing position-dependent things.

Density initialized from wave functions
      .-------------------.  
     /|                   |  
    / |                   |  
   /  |                   |  
  /   |                   |  
 *    |                   |  
 |    |                   |  
 |    |                   |  
 |    |       H           |  
 |    |                   |  
 |    |                   |  
 |    .-------------------.  
 |   /                   /   
 |  /                   /    
 | /                   /     
 |/                   /      
 *-------------------*       

Positions:
   0 H      4.000000    4.000000    3.998681    ( 0.0000,  0.0000,  0.0000)
   1 H      4.000000    4.000000    4.754408    ( 0.0000,  0.0000,  0.0000)


Forces in eV/Ang:
  0 H    -0.00000   -0.00000  -46.51082
  1 H    -0.00000   -0.00000    6.98535

Initializing position-dependent things.

Density initialized from wave functions
      .-------------------.  
     /|                   |  
    / |                   |  
   /  |                   |  
  /   |                   |  
 *    |                   |  
 |    |                   |  
 |    |                   |  
 |    |       H           |  
 |    |                   |  
 |    |                   |  
 |    .-------------------.  
 |   /                   /   
 |  /                   /    
 | /                   /     
 |/                   /      
 *-------------------*       

Positions:
   0 H      4.000000    4.000000    3.998681    ( 0.0000,  0.0000,  0.0000)
   1 H      4.000000    4.000000    4.754408    ( 0.0000,  0.0000,  0.0000)


Forces in eV/Ang:
  0 H    -0.00000   -0.00000  -49.02338
  1 H    -0.00000   -0.00000    8.92591

Initializing position-dependent things.

Density initialized from wave functions
      .-------------------.  
     /|                   |  
    / |                   |  
   /  |                   |  
  /   |                   |  
 *    |                   |  
 |    |                   |  
 |    |                   |  
 |    |       H           |  
 |    |                   |  
 |    |                   |  
 |    .-------------------.  
 |   /                   /   
 |  /                   /    
 | /                   /     
 |/                   /      
 *-------------------*       

Positions:
   0 H      4.000000    4.000000    3.998525    ( 0.0000,  0.0000,  0.0000)
   1 H      4.000000    4.000000    4.754439    ( 0.0000,  0.0000,  0.0000)


Forces in eV/Ang:
  0 H    -0.00000   -0.00000  -48.96007
  1 H    -0.00000   -0.00000    8.90821

Initializing position-dependent things.

Density initialized from wave functions
      .-------------------.  
     /|                   |  
    / |                   |  
   /  |                   |  
  /   |                   |  
 *    |                   |  
 |    |                   |  
 |    |                   |  
 |    |       H           |  
 |    |                   |  
 |    |                   |  
 |    .-------------------.  
 |   /                   /   
 |  /                   /    
 | /                   /     
 |/                   /      
 *-------------------*       

Positions:
   0 H      4.000000    4.000000    3.998525    ( 0.0000,  0.0000,  0.0000)
   1 H      4.000000    4.000000    4.754439    ( 0.0000,  0.0000,  0.0000)


Forces in eV/Ang:
  0 H    -0.00000   -0.00000  -48.96007
  1 H    -0.00000   -0.00000    8.90821

Initializing position-dependent things.

Density initialized from wave functions
      .-------------------.  
     /|                   |  
    / |                   |  
   /  |                   |  
  /   |                   |  
 *    |                   |  
 |    |                   |  
 |    |                   |  
 |    |       H           |  
 |    |                   |  
 |    |                   |  
 |    .-------------------.  
 |   /                   /   
 |  /                   /    
 | /                   /     
 |/                   /      
 *-------------------*       

Positions:
   0 H      4.000000    4.000000    3.998356    ( 0.0000,  0.0000,  0.0000)
   1 H      4.000000    4.000000    4.754473    ( 0.0000,  0.0000,  0.0000)


Forces in eV/Ang:
  0 H    -0.00000   -0.00000  -48.89184
  1 H     0.00000   -0.00000    8.88923

Initializing position-dependent things.

Density initialized from wave functions
      .-------------------.  
     /|                   |  
    / |                   |  
   /  |                   |  
  /   |                   |  
 *    |                   |  
 |    |                   |  
 |    |                   |  
 |    |       H           |  
 |    |                   |  
 |    |                   |  
 |    .-------------------.  
 |   /                   /   
 |  /                   /    
 | /                   /     
 |/                   /      
 *-------------------*       

Positions:
   0 H      4.000000    4.000000    3.998356    ( 0.0000,  0.0000,  0.0000)
   1 H      4.000000    4.000000    4.754473    ( 0.0000,  0.0000,  0.0000)


Forces in eV/Ang:
  0 H    -0.00000   -0.00000  -50.67151
  1 H     0.00000   -0.00000   11.02751

Initializing position-dependent things.

Density initialized from wave functions
      .-------------------.  
     /|                   |  
    / |                   |  
   /  |                   |  
  /   |                   |  
 *    |                   |  
 |    |                   |  
 |    |                   |  
 |    |       H           |  
 |    |                   |  
 |    |                   |  
 |    .-------------------.  
 |   /                   /   
 |  /                   /    
 | /                   /     
 |/                   /      
 *-------------------*       

Positions:
   0 H      4.000000    4.000000    3.998176    ( 0.0000,  0.0000,  0.0000)
   1 H      4.000000    4.000000    4.754509    ( 0.0000,  0.0000,  0.0000)


Forces in eV/Ang:
  0 H     0.00000   -0.00000  -50.59965
  1 H    -0.00000   -0.00000   11.00709

Initializing position-dependent things.

Density initialized from wave functions
      .-------------------.  
     /|                   |  
    / |                   |  
   /  |                   |  
  /   |                   |  
 *    |                   |  
 |    |                   |  
 |    |                   |  
 |    |       H           |  
 |    |                   |  
 |    |                   |  
 |    .-------------------.  
 |   /                   /   
 |  /                   /    
 | /                   /     
 |/                   /      
 *-------------------*       

Positions:
   0 H      4.000000    4.000000    3.998176    ( 0.0000,  0.0000,  0.0000)
   1 H      4.000000    4.000000    4.754509    ( 0.0000,  0.0000,  0.0000)


Forces in eV/Ang:
  0 H     0.00000   -0.00000  -50.59965
  1 H    -0.00000   -0.00000   11.00709

Initializing position-dependent things.

Density initialized from wave functions
      .-------------------.  
     /|                   |  
    / |                   |  
   /  |                   |  
  /   |                   |  
 *    |                   |  
 |    |                   |  
 |    |                   |  
 |    |       H           |  
 |    |                   |  
 |    |                   |  
 |    .-------------------.  
 |   /                   /   
 |  /                   /    
 | /                   /     
 |/                   /      
 *-------------------*       

Positions:
   0 H      4.000000    4.000000    3.997984    ( 0.0000,  0.0000,  0.0000)
   1 H      4.000000    4.000000    4.754547    ( 0.0000,  0.0000,  0.0000)


Forces in eV/Ang:
  0 H    -0.00000   -0.00000  -50.52270
  1 H     0.00000    0.00000   10.98525

Initializing position-dependent things.

Density initialized from wave functions
      .-------------------.  
     /|                   |  
    / |                   |  
   /  |                   |  
  /   |                   |  
 *    |                   |  
 |    |                   |  
 |    |                   |  
 |    |       H           |  
 |    |                   |  
 |    |                   |  
 |    .-------------------.  
 |   /                   /   
 |  /                   /    
 | /                   /     
 |/                   /      
 *-------------------*       

Positions:
   0 H      4.000000    4.000000    3.997984    ( 0.0000,  0.0000,  0.0000)
   1 H      4.000000    4.000000    4.754547    ( 0.0000,  0.0000,  0.0000)


Forces in eV/Ang:
  0 H    -0.00000   -0.00000  -51.43581
  1 H    -0.00000    0.00000   13.16495

Initializing position-dependent things.

Density initialized from wave functions
      .-------------------.  
     /|                   |  
    / |                   |  
   /  |                   |  
  /   |                   |  
 *    |                   |  
 |    |                   |  
 |    |                   |  
 |    |       H           |  
 |    |                   |  
 |    |                   |  
 |    .-------------------.  
 |   /                   /   
 |  /                   /    
 | /                   /     
 |/                   /      
 *-------------------*       

Positions:
   0 H      4.000000    4.000000    3.997780    ( 0.0000,  0.0000,  0.0000)
   1 H      4.000000    4.000000    4.754589    ( 0.0000,  0.0000,  0.0000)


Forces in eV/Ang:
  0 H    -0.00000   -0.00000  -51.35600
  1 H     0.00000   -0.00000   13.14141

Initializing position-dependent things.

Density initialized from wave functions
      .-------------------.  
     /|                   |  
    / |                   |  
   /  |                   |  
  /   |                   |  
 *    |                   |  
 |    |                   |  
 |    |                   |  
 |    |       H           |  
 |    |                   |  
 |    |                   |  
 |    .-------------------.  
 |   /                   /   
 |  /                   /    
 | /                   /     
 |/                   /      
 *-------------------*       

Positions:
   0 H      4.000000    4.000000    3.997780    ( 0.0000,  0.0000,  0.0000)
   1 H      4.000000    4.000000    4.754589    ( 0.0000,  0.0000,  0.0000)


Forces in eV/Ang:
  0 H    -0.00000   -0.00000  -51.35600
  1 H     0.00000   -0.00000   13.14141

Initializing position-dependent things.

Density initialized from wave functions
      .-------------------.  
     /|                   |  
    / |                   |  
   /  |                   |  
  /   |                   |  
 *    |                   |  
 |    |                   |  
 |    |                   |  
 |    |       H           |  
 |    |                   |  
 |    |                   |  
 |    .-------------------.  
 |   /                   /   
 |  /                   /    
 | /                   /     
 |/                   /      
 *-------------------*       

Positions:
   0 H      4.000000    4.000000    3.997563    ( 0.0000,  0.0000,  0.0000)
   1 H      4.000000    4.000000    4.754633    ( 0.0000,  0.0000,  0.0000)


Forces in eV/Ang:
  0 H    -0.00000   -0.00000  -51.27108
  1 H     0.00000    0.00000   13.11630

Initializing position-dependent things.

Density initialized from wave functions
      .-------------------.  
     /|                   |  
    / |                   |  
   /  |                   |  
  /   |                   |  
 *    |                   |  
 |    |                   |  
 |    |                   |  
 |    |       H           |  
 |    |                   |  
 |    |                   |  
 |    .-------------------.  
 |   /                   /   
 |  /                   /    
 | /                   /     
 |/                   /      
 *-------------------*       

Positions:
   0 H      4.000000    4.000000    3.997563    ( 0.0000,  0.0000,  0.0000)
   1 H      4.000000    4.000000    4.754633    ( 0.0000,  0.0000,  0.0000)


Forces in eV/Ang:
  0 H    -0.00000   -0.00000  -51.17837
  1 H     0.00000   -0.00000   15.17533

Initializing position-dependent things.

Density initialized from wave functions
      .-------------------.  
     /|                   |  
    / |                   |  
   /  |                   |  
  /   |                   |  
 *    |                   |  
 |    |                   |  
 |    |                   |  
 |    |       H           |  
 |    |                   |  
 |    |                   |  
 |    .-------------------.  
 |   /                   /   
 |  /                   /    
 | /                   /     
 |/                   /      
 *-------------------*       

Positions:
   0 H      4.000000    4.000000    3.997334    ( 0.0000,  0.0000,  0.0000)
   1 H      4.000000    4.000000    4.754681    ( 0.0000,  0.0000,  0.0000)


Forces in eV/Ang:
  0 H    -0.00000   -0.00000  -51.09168
  1 H    -0.00000    0.00000   15.14827

Initializing position-dependent things.

Density initialized from wave functions
      .-------------------.  
     /|                   |  
    / |                   |  
   /  |                   |  
  /   |                   |  
 *    |                   |  
 |    |                   |  
 |    |                   |  
 |    |       H           |  
 |    |                   |  
 |    |                   |  
 |    .-------------------.  
 |   /                   /   
 |  /                   /    
 | /                   /     
 |/                   /      
 *-------------------*       

Positions:
   0 H      4.000000    4.000000    3.997334    ( 0.0000,  0.0000,  0.0000)
   1 H      4.000000    4.000000    4.754681    ( 0.0000,  0.0000,  0.0000)


Forces in eV/Ang:
  0 H    -0.00000   -0.00000  -51.09168
  1 H    -0.00000    0.00000   15.14827

Initializing position-dependent things.

Density initialized from wave functions
      .-------------------.  
     /|                   |  
    / |                   |  
   /  |                   |  
  /   |                   |  
 *    |                   |  
 |    |                   |  
 |    |                   |  
 |    |       H           |  
 |    |                   |  
 |    |                   |  
 |    .-------------------.  
 |   /                   /   
 |  /                   /    
 | /                   /     
 |/                   /      
 *-------------------*       

Positions:
   0 H      4.000000    4.000000    3.997093    ( 0.0000,  0.0000,  0.0000)
   1 H      4.000000    4.000000    4.754733    ( 0.0000,  0.0000,  0.0000)


Forces in eV/Ang:
  0 H     0.00000   -0.00000  -50.99997
  1 H    -0.00000   -0.00000   15.11950

Initializing position-dependent things.

Density initialized from wave functions
      .-------------------.  
     /|                   |  
    / |                   |  
   /  |                   |  
  /   |                   |  
 *    |                   |  
 |    |                   |  
 |    |                   |  
 |    |       H           |  
 |    |                   |  
 |    |                   |  
 |    .-------------------.  
 |   /                   /   
 |  /                   /    
 | /                   /     
 |/                   /      
 *-------------------*       

Positions:
   0 H      4.000000    4.000000    3.997093    ( 0.0000,  0.0000,  0.0000)
   1 H      4.000000    4.000000    4.754733    ( 0.0000,  0.0000,  0.0000)


Forces in eV/Ang:
  0 H     0.00000   -0.00000  -49.79905
  1 H    -0.00000   -0.00000   16.91831

Initializing position-dependent things.

Density initialized from wave functions
      .-------------------.  
     /|                   |  
    / |                   |  
   /  |                   |  
  /   |                   |  
 *    |                   |  
 |    |                   |  
 |    |                   |  
 |    |       H           |  
 |    |                   |  
 |    |                   |  
 |    .-------------------.  
 |   /                   /   
 |  /                   /    
 | /                   /     
 |/                   /      
 *-------------------*       

Positions:
   0 H      4.000000    4.000000    3.996840    ( 0.0000,  0.0000,  0.0000)
   1 H      4.000000    4.000000    4.754788    ( 0.0000,  0.0000,  0.0000)


Forces in eV/Ang:
  0 H     0.00000   -0.00000  -49.70680
  1 H    -0.00000    0.00000   16.88740

Initializing position-dependent things.

Density initialized from wave functions
      .-------------------.  
     /|                   |  
    / |                   |  
   /  |                   |  
  /   |                   |  
 *    |                   |  
 |    |                   |  
 |    |                   |  
 |    |       H           |  
 |    |                   |  
 |    |                   |  
 |    .-------------------.  
 |   /                   /   
 |  /                   /    
 | /                   /     
 |/                   /      
 *-------------------*       

Positions:
   0 H      4.000000    4.000000    3.996840    ( 0.0000,  0.0000,  0.0000)
   1 H      4.000000    4.000000    4.754788    ( 0.0000,  0.0000,  0.0000)


Forces in eV/Ang:
  0 H     0.00000   -0.00000  -49.70680
  1 H    -0.00000    0.00000   16.88740

Initializing position-dependent things.

Density initialized from wave functions
      .-------------------.  
     /|                   |  
    / |                   |  
   /  |                   |  
  /   |                   |  
 *    |                   |  
 |    |                   |  
 |    |                   |  
 |    |       H           |  
 |    |                   |  
 |    |                   |  
 |    .-------------------.  
 |   /                   /   
 |  /                   /    
 | /                   /     
 |/                   /      
 *-------------------*       

Positions:
   0 H      4.000000    4.000000    3.996574    ( 0.0000,  0.0000,  0.0000)
   1 H      4.000000    4.000000    4.754847    ( 0.0000,  0.0000,  0.0000)


Forces in eV/Ang:
  0 H    -0.00000   -0.00000  -49.60977
  1 H     0.00000   -0.00000   16.85468

Initializing position-dependent things.

Density initialized from wave functions
      .-------------------.  
     /|                   |  
    / |                   |  
   /  |                   |  
  /   |                   |  
 *    |                   |  
 |    |                   |  
 |    |                   |  
 |    |       H           |  
 |    |                   |  
 |    |                   |  
 |    .-------------------.  
 |   /                   /   
 |  /                   /    
 | /                   /     
 |/                   /      
 *-------------------*       

Positions:
   0 H      4.000000    4.000000    3.996574    ( 0.0000,  0.0000,  0.0000)
   1 H      4.000000    4.000000    4.754847    ( 0.0000,  0.0000,  0.0000)


Forces in eV/Ang:
  0 H    -0.00000   -0.00000  -47.31035
  1 H     0.00000   -0.00000   18.31478

Initializing position-dependent things.

Density initialized from wave functions
      .-------------------.  
     /|                   |  
    / |                   |  
   /  |                   |  
  /   |                   |  
 *    |                   |  
 |    |                   |  
 |    |                   |  
 |    |       H           |  
 |    |                   |  
 |    |                   |  
 |    .-------------------.  
 |   /                   /   
 |  /                   /    
 | /                   /     
 |/                   /      
 *-------------------*       

Positions:
   0 H      4.000000    4.000000    3.996298    ( 0.0000,  0.0000,  0.0000)
   1 H      4.000000    4.000000    4.754911    ( 0.0000,  0.0000,  0.0000)


Forces in eV/Ang:
  0 H     0.00000   -0.00000  -47.21376
  1 H    -0.00000    0.00000   18.27981

Initializing position-dependent things.

Density initialized from wave functions
      .-------------------.  
     /|                   |  
    / |                   |  
   /  |                   |  
  /   |                   |  
 *    |                   |  
 |    |                   |  
 |    |                   |  
 |    |       H           |  
 |    |                   |  
 |    |                   |  
 |    .-------------------.  
 |   /                   /   
 |  /                   /    
 | /                   /     
 |/                   /      
 *-------------------*       

Positions:
   0 H      4.000000    4.000000    3.996298    ( 0.0000,  0.0000,  0.0000)
   1 H      4.000000    4.000000    4.754911    ( 0.0000,  0.0000,  0.0000)


Forces in eV/Ang:
  0 H     0.00000   -0.00000  -47.21376
  1 H    -0.00000    0.00000   18.27981

Initializing position-dependent things.

Density initialized from wave functions
      .-------------------.  
     /|                   |  
    / |                   |  
   /  |                   |  
  /   |                   |  
 *    |                   |  
 |    |                   |  
 |    |                   |  
 |    |       H           |  
 |    |                   |  
 |    |                   |  
 |    .-------------------.  
 |   /                   /   
 |  /                   /    
 | /                   /     
 |/                   /      
 *-------------------*       

Positions:
   0 H      4.000000    4.000000    3.996010    ( 0.0000,  0.0000,  0.0000)
   1 H      4.000000    4.000000    4.754979    ( 0.0000,  0.0000,  0.0000)


Forces in eV/Ang:
  0 H    -0.00000    0.00000  -47.11271
  1 H     0.00000    0.00000   18.24294

Initializing position-dependent things.

Density initialized from wave functions
      .-------------------.  
     /|                   |  
    / |                   |  
   /  |                   |  
  /   |                   |  
 *    |                   |  
 |    |                   |  
 |    |                   |  
 |    |       H           |  
 |    |                   |  
 |    |                   |  
 |    .-------------------.  
 |   /                   /   
 |  /                   /    
 | /                   /     
 |/                   /      
 *-------------------*       

Positions:
   0 H      4.000000    4.000000    3.996010    ( 0.0000,  0.0000,  0.0000)
   1 H      4.000000    4.000000    4.754979    ( 0.0000,  0.0000,  0.0000)


Forces in eV/Ang:
  0 H     0.00000    0.00000  -43.90568
  1 H     0.00000   -0.00000   19.34724

Initializing position-dependent things.

Density initialized from wave functions
      .-------------------.  
     /|                   |  
    / |                   |  
   /  |                   |  
  /   |                   |  
 *    |                   |  
 |    |                   |  
 |    |                   |  
 |    |       H           |  
 |    |                   |  
 |    |                   |  
 |    .-------------------.  
 |   /                   /   
 |  /                   /    
 | /                   /     
 |/                   /      
 *-------------------*       

Positions:
   0 H      4.000000    4.000000    3.995711    ( 0.0000,  0.0000,  0.0000)
   1 H      4.000000    4.000000    4.755052    ( 0.0000,  0.0000,  0.0000)


Forces in eV/Ang:
  0 H     0.00000    0.00000  -43.80542
  1 H     0.00000   -0.00000   19.30810

Initializing position-dependent things.

Density initialized from wave functions
      .-------------------.  
     /|                   |  
    / |                   |  
   /  |                   |  
  /   |                   |  
 *    |                   |  
 |    |                   |  
 |    |                   |  
 |    |       H           |  
 |    |                   |  
 |    |                   |  
 |    .-------------------.  
 |   /                   /   
 |  /                   /    
 | /                   /     
 |/                   /      
 *-------------------*       

Positions:
   0 H      4.000000    4.000000    3.995711    ( 0.0000,  0.0000,  0.0000)
   1 H      4.000000    4.000000    4.755052    ( 0.0000,  0.0000,  0.0000)


Forces in eV/Ang:
  0 H     0.00000    0.00000  -43.80542
  1 H     0.00000   -0.00000   19.30810

Initializing position-dependent things.

Density initialized from wave functions
      .-------------------.  
     /|                   |  
    / |                   |  
   /  |                   |  
  /   |                   |  
 *    |                   |  
 |    |                   |  
 |    |                   |  
 |    |       H           |  
 |    |                   |  
 |    |                   |  
 |    .-------------------.  
 |   /                   /   
 |  /                   /    
 | /                   /     
 |/                   /      
 *-------------------*       

Positions:
   0 H      4.000000    4.000000    3.995401    ( 0.0000,  0.0000,  0.0000)
   1 H      4.000000    4.000000    4.755129    ( 0.0000,  0.0000,  0.0000)


Forces in eV/Ang:
  0 H     0.00000    0.00000  -43.70110
  1 H     0.00000    0.00000   19.26703

Initializing position-dependent things.

Density initialized from wave functions
      .-------------------.  
     /|                   |  
    / |                   |  
   /  |                   |  
  /   |                   |  
 *    |                   |  
 |    |                   |  
 |    |                   |  
 |    |       H           |  
 |    |                   |  
 |    |                   |  
 |    .-------------------.  
 |   /                   /   
 |  /                   /    
 | /                   /     
 |/                   /      
 *-------------------*       

Positions:
   0 H      4.000000    4.000000    3.995401    ( 0.0000,  0.0000,  0.0000)
   1 H      4.000000    4.000000    4.755129    ( 0.0000,  0.0000,  0.0000)


Forces in eV/Ang:
  0 H     0.00000    0.00000  -39.96820
  1 H     0.00000    0.00000   20.05735

Initializing position-dependent things.

Density initialized from wave functions
      .-------------------.  
     /|                   |  
    / |                   |  
   /  |                   |  
  /   |                   |  
 *    |                   |  
 |    |                   |  
 |    |                   |  
 |    |       H           |  
 |    |                   |  
 |    |                   |  
 |    .-------------------.  
 |   /                   /   
 |  /                   /    
 | /                   /     
 |/                   /      
 *-------------------*       

Positions:
   0 H      4.000000    4.000000    3.995082    ( 0.0000,  0.0000,  0.0000)
   1 H      4.000000    4.000000    4.755211    ( 0.0000,  0.0000,  0.0000)


Forces in eV/Ang:
  0 H    -0.00000   -0.00000  -39.86411
  1 H    -0.00000   -0.00000   20.01408

Initializing position-dependent things.

Density initialized from wave functions
      .-------------------.  
     /|                   |  
    / |                   |  
   /  |                   |  
  /   |                   |  
 *    |                   |  
 |    |                   |  
 |    |                   |  
 |    |       H           |  
 |    |                   |  
 |    |                   |  
 |    .-------------------.  
 |   /                   /   
 |  /                   /    
 | /                   /     
 |/                   /      
 *-------------------*       

Positions:
   0 H      4.000000    4.000000    3.995082    ( 0.0000,  0.0000,  0.0000)
   1 H      4.000000    4.000000    4.755211    ( 0.0000,  0.0000,  0.0000)


Forces in eV/Ang:
  0 H    -0.00000   -0.00000  -39.86411
  1 H    -0.00000   -0.00000   20.01408

Initializing position-dependent things.

Density initialized from wave functions
      .-------------------.  
     /|                   |  
    / |                   |  
   /  |                   |  
  /   |                   |  
 *    |                   |  
 |    |                   |  
 |    |                   |  
 |    |       H           |  
 |    |                   |  
 |    |                   |  
 |    .-------------------.  
 |   /                   /   
 |  /                   /    
 | /                   /     
 |/                   /      
 *-------------------*       

Positions:
   0 H      4.000000    4.000000    3.994753    ( 0.0000,  0.0000,  0.0000)
   1 H      4.000000    4.000000    4.755297    ( 0.0000,  0.0000,  0.0000)


Forces in eV/Ang:
  0 H    -0.00000   -0.00000  -39.75637
  1 H    -0.00000   -0.00000   19.96887

Initializing position-dependent things.

Density initialized from wave functions
      .-------------------.  
     /|                   |  
    / |                   |  
   /  |                   |  
  /   |                   |  
 *    |                   |  
 |    |                   |  
 |    |                   |  
 |    |       H           |  
 |    |                   |  
 |    |                   |  
 |    .-------------------.  
 |   /                   /   
 |  /                   /    
 | /                   /     
 |/                   /      
 *-------------------*       

Positions:
   0 H      4.000000    4.000000    3.994753    ( 0.0000,  0.0000,  0.0000)
   1 H      4.000000    4.000000    4.755297    ( 0.0000,  0.0000,  0.0000)


Forces in eV/Ang:
  0 H     0.00000   -0.00000  -36.01155
  1 H    -0.00000   -0.00000   20.52906

Initializing position-dependent things.

Density initialized from wave functions
      .-------------------.  
     /|                   |  
    / |                   |  
   /  |                   |  
  /   |                   |  
 *    |                   |  
 |    |                   |  
 |    |                   |  
 |    |       H           |  
 |    |                   |  
 |    |                   |  
 |    .-------------------.  
 |   /                   /   
 |  /                   /    
 | /                   /     
 |/                   /      
 *-------------------*       

Positions:
   0 H      4.000000    4.000000    3.994415    ( 0.0000,  0.0000,  0.0000)
   1 H      4.000000    4.000000    4.755389    ( 0.0000,  0.0000,  0.0000)


Forces in eV/Ang:
  0 H     0.00000    0.00000  -35.90271
  1 H     0.00000   -0.00000   20.48176

Initializing position-dependent things.

Density initialized from wave functions
      .-------------------.  
     /|                   |  
    / |                   |  
   /  |                   |  
  /   |                   |  
 *    |                   |  
 |    |                   |  
 |    |                   |  
 |    |       H           |  
 |    |                   |  
 |    |                   |  
 |    .-------------------.  
 |   /                   /   
 |  /                   /    
 | /                   /     
 |/                   /      
 *-------------------*       

Positions:
   0 H      4.000000    4.000000    3.994415    ( 0.0000,  0.0000,  0.0000)
   1 H      4.000000    4.000000    4.755389    ( 0.0000,  0.0000,  0.0000)


Forces in eV/Ang:
  0 H     0.00000    0.00000  -35.90271
  1 H     0.00000   -0.00000   20.48176

Initializing position-dependent things.

Density initialized from wave functions
      .-------------------.  
     /|                   |  
    / |                   |  
   /  |                   |  
  /   |                   |  
 *    |                   |  
 |    |                   |  
 |    |                   |  
 |    |       H           |  
 |    |                   |  
 |    |                   |  
 |    .-------------------.  
 |   /                   /   
 |  /                   /    
 | /                   /     
 |/                   /      
 *-------------------*       

Positions:
   0 H      4.000000    4.000000    3.994068    ( 0.0000,  0.0000,  0.0000)
   1 H      4.000000    4.000000    4.755485    ( 0.0000,  0.0000,  0.0000)


Forces in eV/Ang:
  0 H    -0.00000    0.00000  -35.79055
  1 H    -0.00000   -0.00000   20.43255

Initializing position-dependent things.

Density initialized from wave functions
      .-------------------.  
     /|                   |  
    / |                   |  
   /  |                   |  
  /   |                   |  
 *    |                   |  
 |    |                   |  
 |    |                   |  
 |    |       H           |  
 |    |                   |  
 |    |                   |  
 |    .-------------------.  
 |   /                   /   
 |  /                   /    
 | /                   /     
 |/                   /      
 *-------------------*       

Positions:
   0 H      4.000000    4.000000    3.994068    ( 0.0000,  0.0000,  0.0000)
   1 H      4.000000    4.000000    4.755485    ( 0.0000,  0.0000,  0.0000)


Forces in eV/Ang:
  0 H    -0.00000   -0.00000  -32.54983
  1 H    -0.00000   -0.00000   20.86034

Initializing position-dependent things.

Density initialized from wave functions
      .-------------------.  
     /|                   |  
    / |                   |  
   /  |                   |  
  /   |                   |  
 *    |                   |  
 |    |                   |  
 |    |                   |  
 |    |       H           |  
 |    |                   |  
 |    |                   |  
 |    .-------------------.  
 |   /                   /   
 |  /                   /    
 | /                   /     
 |/                   /      
 *-------------------*       

Positions:
   0 H      4.000000    4.000000    3.993714    ( 0.0000,  0.0000,  0.0000)
   1 H      4.000000    4.000000    4.755587    ( 0.0000,  0.0000,  0.0000)


Forces in eV/Ang:
[...]
 | /                   /     
 |/                   /      
 *-------------------*       

Positions:
   0 H      4.000000    4.000000    3.178793    ( 0.0000,  0.0000,  0.0000)
   1 H      4.000000    4.000000    5.155772    ( 0.0000,  0.0000,  0.0000)


Forces in eV/Ang:
  0 H    -0.00000   -0.00000    4.67749
  1 H    -0.00000   -0.00000    0.33932

Initializing position-dependent things.

Density initialized from wave functions
      .-------------------.  
     /|                   |  
    / |                   |  
   /  |                   |  
  /   |                   |  
 *    |                   |  
 |    |                   |  
 |    |       H           |  
 |    |                   |  
 |    |                   |  
 |    |       H           |  
 |    .-------------------.  
 |   /                   /   
 |  /                   /    
 | /                   /     
 |/                   /      
 *-------------------*       

Positions:
   0 H      4.000000    4.000000    3.178793    ( 0.0000,  0.0000,  0.0000)
   1 H      4.000000    4.000000    5.155772    ( 0.0000,  0.0000,  0.0000)


Forces in eV/Ang:
  0 H    -0.00000   -0.00000    3.71052
  1 H    -0.00000   -0.00000    0.43061

Initializing position-dependent things.

Density initialized from wave functions
      .-------------------.  
     /|                   |  
    / |                   |  
   /  |                   |  
  /   |                   |  
 *    |                   |  
 |    |                   |  
 |    |       H           |  
 |    |                   |  
 |    |                   |  
 |    |       H           |  
 |    .-------------------.  
 |   /                   /   
 |  /                   /    
 | /                   /     
 |/                   /      
 *-------------------*       

Positions:
   0 H      4.000000    4.000000    3.176733    ( 0.0000,  0.0000,  0.0000)
   1 H      4.000000    4.000000    5.156695    ( 0.0000,  0.0000,  0.0000)


Forces in eV/Ang:
  0 H    -0.00000   -0.00000    3.97756
  1 H     0.00000   -0.00000    0.64456

Initializing position-dependent things.

Density initialized from wave functions
      .-------------------.  
     /|                   |  
    / |                   |  
   /  |                   |  
  /   |                   |  
 *    |                   |  
 |    |                   |  
 |    |       H           |  
 |    |                   |  
 |    |                   |  
 |    |       H           |  
 |    .-------------------.  
 |   /                   /   
 |  /                   /    
 | /                   /     
 |/                   /      
 *-------------------*       

Positions:
   0 H      4.000000    4.000000    3.176733    ( 0.0000,  0.0000,  0.0000)
   1 H      4.000000    4.000000    5.156695    ( 0.0000,  0.0000,  0.0000)


Forces in eV/Ang:
  0 H    -0.00000   -0.00000    3.97756
  1 H     0.00000   -0.00000    0.64456

Initializing position-dependent things.

Density initialized from wave functions
      .-------------------.  
     /|                   |  
    / |                   |  
   /  |                   |  
  /   |                   |  
 *    |                   |  
 |    |                   |  
 |    |       H           |  
 |    |                   |  
 |    |                   |  
 |    |       H           |  
 |    .-------------------.  
 |   /                   /   
 |  /                   /    
 | /                   /     
 |/                   /      
 *-------------------*       

Positions:
   0 H      4.000000    4.000000    3.174674    ( 0.0000,  0.0000,  0.0000)
   1 H      4.000000    4.000000    5.157619    ( 0.0000,  0.0000,  0.0000)


Forces in eV/Ang:
  0 H     0.00000   -0.00000    4.20787
  1 H     0.00000   -0.00000    0.85994

Initializing position-dependent things.

Density initialized from wave functions
      .-------------------.  
     /|                   |  
    / |                   |  
   /  |                   |  
  /   |                   |  
 *    |                   |  
 |    |                   |  
 |    |       H           |  
 |    |                   |  
 |    |                   |  
 |    |       H           |  
 |    .-------------------.  
 |   /                   /   
 |  /                   /    
 | /                   /     
 |/                   /      
 *-------------------*       

Positions:
   0 H      4.000000    4.000000    3.174674    ( 0.0000,  0.0000,  0.0000)
   1 H      4.000000    4.000000    5.157619    ( 0.0000,  0.0000,  0.0000)


Forces in eV/Ang:
  0 H     0.00000   -0.00000    3.28140
  1 H    -0.00000   -0.00000    0.98364

Initializing position-dependent things.

Density initialized from wave functions
      .-------------------.  
     /|                   |  
    / |                   |  
   /  |                   |  
  /   |                   |  
 *    |                   |  
 |    |                   |  
 |    |       H           |  
 |    |                   |  
 |    |                   |  
 |    |       H           |  
 |    .-------------------.  
 |   /                   /   
 |  /                   /    
 | /                   /     
 |/                   /      
 *-------------------*       

Positions:
   0 H      4.000000    4.000000    3.172615    ( 0.0000,  0.0000,  0.0000)
   1 H      4.000000    4.000000    5.158543    ( 0.0000,  0.0000,  0.0000)


Forces in eV/Ang:
  0 H    -0.00000    0.00000    3.46655
  1 H     0.00000   -0.00000    1.20005

Initializing position-dependent things.

Density initialized from wave functions
      .-------------------.  
     /|                   |  
    / |                   |  
   /  |                   |  
  /   |                   |  
 *    |                   |  
 |    |                   |  
 |    |       H           |  
 |    |                   |  
 |    |                   |  
 |    |       H           |  
 |    .-------------------.  
 |   /                   /   
 |  /                   /    
 | /                   /     
 |/                   /      
 *-------------------*       

Positions:
   0 H      4.000000    4.000000    3.172615    ( 0.0000,  0.0000,  0.0000)
   1 H      4.000000    4.000000    5.158543    ( 0.0000,  0.0000,  0.0000)


Forces in eV/Ang:
  0 H    -0.00000    0.00000    3.46655
  1 H     0.00000   -0.00000    1.20005

Initializing position-dependent things.

Density initialized from wave functions
      .-------------------.  
     /|                   |  
    / |                   |  
   /  |                   |  
  /   |                   |  
 *    |                   |  
 |    |                   |  
 |    |       H           |  
 |    |                   |  
 |    |                   |  
 |    |       H           |  
 |    .-------------------.  
 |   /                   /   
 |  /                   /    
 | /                   /     
 |/                   /      
 *-------------------*       

Positions:
   0 H      4.000000    4.000000    3.170557    ( 0.0000,  0.0000,  0.0000)
   1 H      4.000000    4.000000    5.159467    ( 0.0000,  0.0000,  0.0000)


Forces in eV/Ang:
  0 H    -0.00000   -0.00000    3.61308
  1 H     0.00000   -0.00000    1.41682

Initializing position-dependent things.

Density initialized from wave functions
      .-------------------.  
     /|                   |  
    / |                   |  
   /  |                   |  
  /   |                   |  
 *    |                   |  
 |    |                   |  
 |    |       H           |  
 |    |                   |  
 |    |                   |  
 |    |       H           |  
 |    .-------------------.  
 |   /                   /   
 |  /                   /    
 | /                   /     
 |/                   /      
 *-------------------*       

Positions:
   0 H      4.000000    4.000000    3.170557    ( 0.0000,  0.0000,  0.0000)
   1 H      4.000000    4.000000    5.159467    ( 0.0000,  0.0000,  0.0000)


Forces in eV/Ang:
  0 H    -0.00000   -0.00000    2.81387
  1 H     0.00000   -0.00000    1.56267

Initializing position-dependent things.

Density initialized from wave functions
      .-------------------.  
     /|                   |  
    / |                   |  
   /  |                   |  
  /   |                   |  
 *    |                   |  
 |    |                   |  
 |    |       H           |  
 |    |                   |  
 |    |                   |  
 |    |       H           |  
 |    .-------------------.  
 |   /                   /   
 |  /                   /    
 | /                   /     
 |/                   /      
 *-------------------*       

Positions:
   0 H      4.000000    4.000000    3.168500    ( 0.0000,  0.0000,  0.0000)
   1 H      4.000000    4.000000    5.160392    ( 0.0000,  0.0000,  0.0000)


Forces in eV/Ang:
  0 H    -0.00000   -0.00000    2.91475
  1 H     0.00000   -0.00000    1.77831

Initializing position-dependent things.

Density initialized from wave functions
      .-------------------.  
     /|                   |  
    / |                   |  
   /  |                   |  
  /   |                   |  
 *    |                   |  
 |    |                   |  
 |    |       H           |  
 |    |                   |  
 |    |                   |  
 |    |       H           |  
 |    .-------------------.  
 |   /                   /   
 |  /                   /    
 | /                   /     
 |/                   /      
 *-------------------*       

Positions:
   0 H      4.000000    4.000000    3.168500    ( 0.0000,  0.0000,  0.0000)
   1 H      4.000000    4.000000    5.160392    ( 0.0000,  0.0000,  0.0000)


Forces in eV/Ang:
  0 H    -0.00000   -0.00000    2.91475
  1 H     0.00000   -0.00000    1.77831

Initializing position-dependent things.

Density initialized from wave functions
      .-------------------.  
     /|                   |  
    / |                   |  
   /  |                   |  
  /   |                   |  
 *    |                   |  
 |    |                   |  
 |    |       H           |  
 |    |                   |  
 |    |                   |  
 |    |       H           |  
 |    .-------------------.  
 |   /                   /   
 |  /                   /    
 | /                   /     
 |/                   /      
 *-------------------*       

Positions:
   0 H      4.000000    4.000000    3.166444    ( 0.0000,  0.0000,  0.0000)
   1 H      4.000000    4.000000    5.161317    ( 0.0000,  0.0000,  0.0000)


Forces in eV/Ang:
  0 H     0.00000   -0.00000    2.97133
  1 H    -0.00000   -0.00000    1.99297

Initializing position-dependent things.

Density initialized from wave functions
      .-------------------.  
     /|                   |  
    / |                   |  
   /  |                   |  
  /   |                   |  
 *    |                   |  
 |    |                   |  
 |    |       H           |  
 |    |                   |  
 |    |                   |  
 |    |       H           |  
 |    .-------------------.  
 |   /                   /   
 |  /                   /    
 | /                   /     
 |/                   /      
 *-------------------*       

Positions:
   0 H      4.000000    4.000000    3.166444    ( 0.0000,  0.0000,  0.0000)
   1 H      4.000000    4.000000    5.161317    ( 0.0000,  0.0000,  0.0000)


Forces in eV/Ang:
  0 H    -0.00000    0.00000    2.33742
  1 H     0.00000   -0.00000    2.14732

Initializing position-dependent things.

Density initialized from wave functions
      .-------------------.  
     /|                   |  
    / |                   |  
   /  |                   |  
  /   |                   |  
 *    |                   |  
 |    |                   |  
 |    |       H           |  
 |    |                   |  
 |    |                   |  
 |    |       H           |  
 |    .-------------------.  
 |   /                   /   
 |  /                   /    
 | /                   /     
 |/                   /      
 *-------------------*       

Positions:
   0 H      4.000000    4.000000    3.164389    ( 0.0000,  0.0000,  0.0000)
   1 H      4.000000    4.000000    5.162242    ( 0.0000,  0.0000,  0.0000)


Forces in eV/Ang:
  0 H    -0.00000    0.00000    2.34394
  1 H     0.00000    0.00000    2.36043

Initializing position-dependent things.

Density initialized from wave functions
      .-------------------.  
     /|                   |  
    / |                   |  
   /  |                   |  
  /   |                   |  
 *    |                   |  
 |    |                   |  
 |    |       H           |  
 |    |                   |  
 |    |                   |  
 |    |       H           |  
 |    .-------------------.  
 |   /                   /   
 |  /                   /    
 | /                   /     
 |/                   /      
 *-------------------*       

Positions:
   0 H      4.000000    4.000000    3.164389    ( 0.0000,  0.0000,  0.0000)
   1 H      4.000000    4.000000    5.162242    ( 0.0000,  0.0000,  0.0000)


Forces in eV/Ang:
  0 H    -0.00000    0.00000    2.34394
  1 H     0.00000    0.00000    2.36043

Initializing position-dependent things.

Density initialized from wave functions
      .-------------------.  
     /|                   |  
    / |                   |  
   /  |                   |  
  /   |                   |  
 *    |                   |  
 |    |                   |  
 |    |       H           |  
 |    |                   |  
 |    |                   |  
 |    |       H           |  
 |    .-------------------.  
 |   /                   /   
 |  /                   /    
 | /                   /     
 |/                   /      
 *-------------------*       

Positions:
   0 H      4.000000    4.000000    3.162334    ( 0.0000,  0.0000,  0.0000)
   1 H      4.000000    4.000000    5.163168    ( 0.0000,  0.0000,  0.0000)


Forces in eV/Ang:
  0 H    -0.00000   -0.00000    2.30830
  1 H     0.00000   -0.00000    2.57165

Initializing position-dependent things.

Density initialized from wave functions
      .-------------------.  
     /|                   |  
    / |                   |  
   /  |                   |  
  /   |                   |  
 *    |                   |  
 |    |                   |  
 |    |       H           |  
 |    |                   |  
 |    |                   |  
 |    |       H           |  
 |    .-------------------.  
 |   /                   /   
 |  /                   /    
 | /                   /     
 |/                   /      
 *-------------------*       

Positions:
   0 H      4.000000    4.000000    3.162334    ( 0.0000,  0.0000,  0.0000)
   1 H      4.000000    4.000000    5.163168    ( 0.0000,  0.0000,  0.0000)


Forces in eV/Ang:
  0 H    -0.00000   -0.00000    1.83218
  1 H     0.00000   -0.00000    2.72027

Initializing position-dependent things.

Density initialized from wave functions
      .-------------------.  
     /|                   |  
    / |                   |  
   /  |                   |  
  /   |                   |  
 *    |                   |  
 |    |                   |  
 |    |       H           |  
 |    |                   |  
 |    |                   |  
 |    |       H           |  
 |    .-------------------.  
 |   /                   /   
 |  /                   /    
 | /                   /     
 |/                   /      
 *-------------------*       

Positions:
   0 H      4.000000    4.000000    3.160279    ( 0.0000,  0.0000,  0.0000)
   1 H      4.000000    4.000000    5.164095    ( 0.0000,  0.0000,  0.0000)


Forces in eV/Ang:
  0 H    -0.00000   -0.00000    1.75573
  1 H    -0.00000   -0.00000    2.92932

Timing:                                      incl.     excl.
-------------------------------------------------------------------
Apply approximate inverse overlap:           0.100     0.100   0.0% |
Apply exact inverse overlap:                18.397    17.279   1.7% ||
 Apply approximate inverse overlap:          1.118     1.118   0.1% |
Apply time-dependent operators:              4.409     4.409   0.4% |
BiCGStab:                                  295.177   140.719  13.9% |-----|
 Apply time-dependent operators:           153.008   153.008  15.1% |-----|
 Solve TDDFT preconditioner:                 1.450     1.450   0.1% |
Density:                                    11.211     0.165   0.0% |
 Atomic density matrices:                    5.271     5.271   0.5% |
 Mix:                                        4.100     4.100   0.4% |
 Multipole moments:                          1.109     1.109   0.1% |
 Pseudo density:                             0.567     0.470   0.0% |
  Symmetrize density:                        0.096     0.096   0.0% |
Density initialized from wave functions:    11.310    11.216   1.1% |
 Symmetrize density:                         0.094     0.094   0.0% |
Hamiltonian:                               435.334     1.518   0.2% |
 Atomic:                                     6.143     6.037   0.6% |
  XC Correction:                             0.106     0.106   0.0% |
 Calculate atomic Hamiltonians:              3.400     3.400   0.3% |
 Communicate:                              133.589   133.589  13.2% |----|
 Hartree integrate/restrict:                 4.099     4.099   0.4% |
 Poisson:                                  256.241     3.832   0.4% |
  Communicate bwd 0:                        57.112    57.112   5.7% |-|
  Communicate bwd 1:                        61.146    61.146   6.1% |-|
  Communicate fwd 0:                        58.304    58.304   5.8% |-|
  Communicate fwd 1:                        60.245    60.245   6.0% |-|
  fft:                                       4.874     4.874   0.5% |
  fft2:                                     10.728    10.728   1.1% |
 XC 3D grid:                                29.269    29.269   2.9% ||
 vbar:                                       1.075     1.075   0.1% |
Redistribute:                                4.261     4.261   0.4% |
Set symmetry:                                0.008     0.008   0.0% |
Update time-dependent operators:           112.447     0.245   0.0% |
 Density:                                    5.143     0.072   0.0% |
  Atomic density matrices:                   2.388     2.388   0.2% |
  Mix:                                       1.916     1.916   0.2% |
  Multipole moments:                         0.515     0.515   0.1% |
  Pseudo density:                            0.251     0.210   0.0% |
   Symmetrize density:                       0.041     0.041   0.0% |
 Hamiltonian:                              107.059     0.372   0.0% |
  Atomic:                                    1.499     1.473   0.1% |
   XC Correction:                            0.026     0.026   0.0% |
  Calculate atomic Hamiltonians:             0.835     0.835   0.1% |
  Communicate:                              32.956    32.956   3.3% ||
  Hartree integrate/restrict:                1.004     1.004   0.1% |
  Poisson:                                  62.904     0.925   0.1% |
   Communicate bwd 0:                       14.067    14.067   1.4% ||
   Communicate bwd 1:                       15.030    15.030   1.5% ||
   Communicate fwd 0:                       14.233    14.233   1.4% ||
   Communicate fwd 1:                       14.816    14.816   1.5% ||
   fft:                                      1.200     1.200   0.1% |
   fft2:                                     2.633     2.633   0.3% |
  XC 3D grid:                                7.231     7.231   0.7% |
  vbar:                                      0.258     0.258   0.0% |
Other:                                     117.321   117.321  11.6% |----|
-------------------------------------------------------------------
Total:                                              1009.977 100.0%

Memory usage: 119.77 MiB
Date: Tue Dec  3 17:01:55 2019
