
  ___ ___ ___ _ _ _  
 |   |   |_  | | | | 
 | | | | | . | | | | 
 |__ |  _|___|_____|  19.8.1
 |___|_|             

User:   sjliang@nid00014
Date:   Mon Dec  2 15:46:27 2019
Arch:   x86_64
Pid:    5832
Python: 3.6.9
gpaw:   /global/homes/s/sjliang/.conda/envs/gpaw/lib/python3.6/site-packages/gpaw
_gpaw:  /global/homes/s/sjliang/.conda/envs/gpaw/bin/gpaw-python (54c2d0d863)
ase:    /global/homes/s/sjliang/.conda/envs/gpaw/lib/python3.6/site-packages/ase (version 3.18.1)
numpy:  /global/homes/s/sjliang/.conda/envs/gpaw/lib/python3.6/site-packages/numpy (version 1.17.4)
scipy:  /global/homes/s/sjliang/.conda/envs/gpaw/lib/python3.6/site-packages/scipy (version 1.3.1)
libxc:  4.2.3
units:  Angstrom and eV
cores:  1

Reading from H2.gpw
Read dipole, energy, free_energy
Reading input parameters:
  eigensolver: rmm-diis
  mode: {ecut: 340.0,
         gammacentered: False,
         name: pw}
  occupations: {fixmagmom: True,
                name: fermi-dirac,
                width: 0.0}
  txt: H2.out
  xc: PBE

Initialize ...

H-setup:
  name: Hydrogen
  id: d65de229564ff8ea4db303e23b6d1ecf
  Z: 1
  valence: 1
  core: 0
  charge: 0.0
  file: /global/homes/s/sjliang/gpaw/gpaw-setups-0.9.20000/H.PBE
  compensation charges: gauss, rc=0.15, lmax=2
  cutoffs: 0.85(filt), 0.53(core),
  valence states:
                energy  radius
    1s(1.00)    -6.494   0.476
    *s          20.717   0.476
    *p           0.000   0.476

  Using partial waves for H as LCAO basis

Reference energy: -24.980324

Spin-paired calculation

Occupation numbers:
  Fixed magnetic moment
  Fermi-Dirac: width=0.0000 eV

Convergence criteria:
  Maximum total energy change: 0.0005 eV / electron
  Maximum integral of absolute density change: 0.0001 electrons
  Maximum integral of absolute eigenstate change: 4e-08 eV^2
  Maximum number of iterations: 333

Symmetries present (total): 1

  ( 1  0  0)
  ( 0  1  0)
  ( 0  0  1)

1 k-point (Gamma)
1 k-point in the irreducible part of the Brillouin zone
       k-points in crystal coordinates                weights
   0:     0.00000000    0.00000000    0.00000000          1/1

Wave functions: Plane wave expansion
  Cutoff energy: 340.000 eV
  Number of coefficients: 14243 (reduced to 7122)
  Pulay-stress correction: 0.000000 eV/Ang^3 (de/decut=0.000000)
  Using Numpy's FFT
  ScaLapack parameters: grid=1x1, blocksize=None
  Wavefunction extrapolation:
    Improved wavefunction reuse through dual PAW basis 

Eigensolver
   RMM-DIIS eigensolver
       keep_htpsit: True
       DIIS iterations: 3
       Threshold for DIIS: 1.0e-16
       Limit lambda: False
       use_rayleigh: False
       trial_step: 0.1 

Densities:
  Coarse grid: 45*45*45 grid
  Fine grid: 90*90*90 grid
  Total Charge: 0.000000 

Density mixing:
  Method: separate
  Backend: pulay
  Linear mixing parameter: 0.05
  Mixing with 5 old densities
  Damping of long wave oscillations: 50 

Hamiltonian:
  XC and Coulomb potentials evaluated on a 90*90*90 grid
  Using the PBE Exchange-Correlation functional
 

XC parameters: PBE with 2 nearest neighbor stencil

Memory estimate:
  Process memory now: 139.39 MiB
  Calculator: 55.43 MiB
    Density: 40.07 MiB
      Arrays: 18.08 MiB
      Localized functions: 15.04 MiB
      Mixer: 6.95 MiB
    Hamiltonian: 12.13 MiB
      Arrays: 11.82 MiB
      XC: 0.00 MiB
      Poisson: 0.00 MiB
      vbar: 0.31 MiB
    Wavefunctions: 3.23 MiB
      Arrays psit_nG: 0.22 MiB
      Eigensolver: 0.76 MiB
      Projections: 0.00 MiB
      Projectors: 0.38 MiB
      PW-descriptor: 1.87 MiB

Total number of cores used: 1

Number of atoms: 2
Number of atomic orbitals: 2
Number of bands in calculation: 2
Bands to converge: occupied states only
Number of valence electrons: 2

... initialized

Initializing position-dependent things.

Creating initial wave functions:
  2 bands from LCAO basis set

       .------------------------.  
      /|                        |  
     / |                        |  
    /  |                        |  
   /   |                        |  
  /    |                        |  
 *     |                        |  
 |     |                        |  
 |     |                        |  
 |     |        HH              |  
 |     |                        |  
 |     |                        |  
 |     .------------------------.  
 |    /                        /   
 |   /                        /    
 |  /                        /     
 | /                        /      
 |/                        /       
 *------------------------*        

Positions:
   0 H      4.630000    5.000000    5.000000    ( 0.0000,  0.0000,  0.0000)
   1 H      5.370000    5.000000    5.000000    ( 0.0000,  0.0000,  0.0000)

Unit cell:
           periodic     x           y           z      points  spacing
  1. axis:    no    10.000000    0.000000    0.000000    45     0.2222
  2. axis:    no     0.000000   10.000000    0.000000    45     0.2222
  3. axis:    no     0.000000    0.000000   10.000000    45     0.2222

  Lengths:  10.000000  10.000000  10.000000
  Angles:   90.000000  90.000000  90.000000

Effective grid spacing dv^(1/3) = 0.2222

                     log10-error:    total        iterations:
           time      wfs    density  energy       fermi  poisson
iter:   1  15:46:32  +1.30   +inf    -5.300354    0             
iter:   2  15:46:32  -0.58  -1.84    -6.634937    0             
iter:   3  15:46:33  -3.32  -3.34    -6.649217    0             
iter:   4  15:46:34  -5.61  -3.08    -6.649248    0             
iter:   5  15:46:34  -7.26  -3.07    -6.649248    0             
iter:   6  15:46:35  -5.73  -3.05    -6.649246    0             
iter:   7  15:46:35  -5.17  -3.28    -6.649246    0             
iter:   8  15:46:36  -6.55  -3.73    -6.649246    0             
iter:   9  15:46:37  -7.38  -4.23    -6.649246    0             
iter:  10  15:46:37  -9.24  -4.94    -6.649246    0             

Converged after 10 iterations.

Dipole moment: (0.000000, -0.000000, -0.000000) |e|*Ang

Energy contributions relative to reference atoms: (reference = -24.980324)

Kinetic:         +6.253078
Potential:       -7.838178
External:        +0.000000
XC:              -5.057963
Entropy (-ST):   +0.000000
Local:           -0.006183
--------------------------
Free energy:     -6.649246
Extrapolated:    -6.649246

Fermi levels: inf, -inf

 Band  Eigenvalues  Occupancy
    0    -10.33356    2.00000
    1      0.40894    0.00000

Gap: 10.743 eV
Transition (v -> c):
  (s=0, k=0, n=0, [0.00, 0.00, 0.00]) -> (s=0, k=0, n=1, [0.00, 0.00, 0.00])

Forces in eV/Ang:
  0 H    -0.50760    0.00000    0.00000
  1 H     0.50760    0.00000    0.00000

System changes: positions 

Initializing position-dependent things.

Density initialized from wave functions
       .------------------------.  
      /|                        |  
     / |                        |  
    /  |                        |  
   /   |                        |  
  /    |                        |  
 *     |                        |  
 |     |                        |  
 |     |                        |  
 |     |       H  H             |  
 |     |                        |  
 |     |                        |  
 |     .------------------------.  
 |    /                        /   
 |   /                        /    
 |  /                        /     
 | /                        /      
 |/                        /       
 *------------------------*        

Positions:
   0 H      4.579240    5.000000    5.000000    ( 0.0000,  0.0000,  0.0000)
   1 H      5.420760    5.000000    5.000000    ( 0.0000,  0.0000,  0.0000)

Unit cell:
           periodic     x           y           z      points  spacing
  1. axis:    no    10.000000    0.000000    0.000000    45     0.2222
  2. axis:    no     0.000000   10.000000    0.000000    45     0.2222
  3. axis:    no     0.000000    0.000000   10.000000    45     0.2222

  Lengths:  10.000000  10.000000  10.000000
  Angles:   90.000000  90.000000  90.000000

Effective grid spacing dv^(1/3) = 0.2222

                     log10-error:    total        iterations:
           time      wfs    density  energy       fermi  poisson
iter:   1  15:46:38  -0.07   +inf    -6.516385    0             
iter:   2  15:46:39  -2.74  -1.40    -6.550891    0             
iter:   3  15:46:39  -1.90  -1.43    -6.547356    0             
iter:   4  15:46:40  -4.02  -2.20    -6.548540    0             
iter:   5  15:46:40  -3.99  -2.22    -6.548503    0             
iter:   6  15:46:41  -4.49  -2.50    -6.548520    0             
iter:   7  15:46:42  -6.10  -3.52    -6.548522    0             
iter:   8  15:46:42  -6.90  -3.91    -6.548522    0             
iter:   9  15:46:43  -9.26  -5.10    -6.548522    0             

Converged after 9 iterations.

Dipole moment: (-0.000000, -0.000000, -0.000000) |e|*Ang

Energy contributions relative to reference atoms: (reference = -24.980324)

Kinetic:         +3.940178
Potential:       -6.236379
External:        +0.000000
XC:              -4.245236
Entropy (-ST):   +0.000000
Local:           -0.007084
--------------------------
Free energy:     -6.548522
Extrapolated:    -6.548522

Fermi levels: inf, -inf

 Band  Eigenvalues  Occupancy
    0     -9.87554    2.00000
    1      0.04904    0.00000

Gap: 9.925 eV
Transition (v -> c):
  (s=0, k=0, n=0, [0.00, 0.00, 0.00]) -> (s=0, k=0, n=1, [0.00, 0.00, 0.00])

Forces in eV/Ang:
  0 H     2.20190    0.00000    0.00000
  1 H    -2.20190    0.00000    0.00000

System changes: positions 

Initializing position-dependent things.

Density initialized from wave functions
       .------------------------.  
      /|                        |  
     / |                        |  
    /  |                        |  
   /   |                        |  
  /    |                        |  
 *     |                        |  
 |     |                        |  
 |     |                        |  
 |     |        HH              |  
 |     |                        |  
 |     |                        |  
 |     .------------------------.  
 |    /                        /   
 |   /                        /    
 |  /                        /     
 | /                        /      
 |/                        /       
 *------------------------*        

Positions:
   0 H      4.622535    5.000000    5.000000    ( 0.0000,  0.0000,  0.0000)
   1 H      5.377465    5.000000    5.000000    ( 0.0000,  0.0000,  0.0000)

Unit cell:
           periodic     x           y           z      points  spacing
  1. axis:    no    10.000000    0.000000    0.000000    45     0.2222
  2. axis:    no     0.000000   10.000000    0.000000    45     0.2222
  3. axis:    no     0.000000    0.000000   10.000000    45     0.2222

  Lengths:  10.000000  10.000000  10.000000
  Angles:   90.000000  90.000000  90.000000

Effective grid spacing dv^(1/3) = 0.2222

                     log10-error:    total        iterations:
           time      wfs    density  energy       fermi  poisson
iter:   1  15:46:44  -0.25   +inf    -6.631823    0             
iter:   2  15:46:44  -2.80  -1.47    -6.655728    0             
iter:   3  15:46:45  -1.96  -1.50    -6.651881    0             
iter:   4  15:46:45  -4.15  -2.36    -6.652868    0             
iter:   5  15:46:46  -4.77  -2.38    -6.652898    0             
iter:   6  15:46:47  -4.93  -2.74    -6.652904    0             
iter:   7  15:46:47  -5.93  -4.04    -6.652905    0             
iter:   8  15:46:48  -6.04  -3.50    -6.652904    0             
iter:   9  15:46:48  -7.26  -4.28    -6.652904    0             
iter:  10  15:46:49  -9.13  -5.29    -6.652904    0             

Converged after 10 iterations.

Dipole moment: (-0.000000, -0.000000, -0.000000) |e|*Ang

Energy contributions relative to reference atoms: (reference = -24.980324)

Kinetic:         +5.874587
Potential:       -7.590517
External:        +0.000000
XC:              -4.930682
Entropy (-ST):   +0.000000
Local:           -0.006293
--------------------------
Free energy:     -6.652904
Extrapolated:    -6.652904

Fermi levels: inf, -inf

 Band  Eigenvalues  Occupancy
    0    -10.26178    2.00000
    1      0.36211    0.00000

Gap: 10.624 eV
Transition (v -> c):
  (s=0, k=0, n=0, [0.00, 0.00, 0.00]) -> (s=0, k=0, n=1, [0.00, 0.00, 0.00])

Forces in eV/Ang:
  0 H     0.00916    0.00000    0.00000
  1 H    -0.00916    0.00000    0.00000

Timing:                                      incl.     excl.
-------------------------------------------------------------------
Density initialized from wave functions:     0.114     0.114   0.5% |
 Symmetrize density:                         0.000     0.000   0.0% |
Forces:                                      0.279     0.279   1.1% |
Hamiltonian:                                 1.496     0.015   0.1% |
 Atomic:                                     0.131     0.002   0.0% |
  XC Correction:                             0.130     0.130   0.5% |
 Calculate atomic Hamiltonians:              0.039     0.039   0.2% |
 Communicate:                                0.000     0.000   0.0% |
 Poisson:                                    0.007     0.007   0.0% |
 XC 3D grid:                                 1.304     1.304   5.2% |-|
LCAO initialization:                         0.015     0.004   0.0% |
 LCAO eigensolver:                           0.002     0.000   0.0% |
  Calculate projections:                     0.000     0.000   0.0% |
  DenseAtomicCorrection:                     0.000     0.000   0.0% |
  Distribute overlap matrix:                 0.000     0.000   0.0% |
  Orbital Layouts:                           0.001     0.001   0.0% |
  Potential matrix:                          0.000     0.000   0.0% |
 LCAO to grid:                               0.005     0.005   0.0% |
 Set positions (LCAO WFS):                   0.004     0.001   0.0% |
  Basic WFS set positions:                   0.000     0.000   0.0% |
  Basis functions set positions:             0.000     0.000   0.0% |
  P tci:                                     0.001     0.001   0.0% |
  ST tci:                                    0.000     0.000   0.0% |
  mktci:                                     0.002     0.002   0.0% |
PWDescriptor:                                0.019     0.019   0.1% |
Redistribute:                                0.001     0.001   0.0% |
SCF-cycle:                                  16.507     0.720   2.9% ||
 Density:                                    1.551     0.000   0.0% |
  Atomic density matrices:                   0.011     0.011   0.0% |
  Mix:                                       1.310     1.310   5.2% |-|
  Multipole moments:                         0.003     0.003   0.0% |
  Pseudo density:                            0.226     0.225   0.9% |
   Symmetrize density:                       0.000     0.000   0.0% |
 Hamiltonian:                               12.924     0.133   0.5% |
  Atomic:                                    1.142     0.015   0.1% |
   XC Correction:                            1.127     1.127   4.5% |-|
  Calculate atomic Hamiltonians:             0.338     0.338   1.3% ||
  Communicate:                               0.000     0.000   0.0% |
  Poisson:                                   0.057     0.057   0.2% |
  XC 3D grid:                               11.254    11.254  44.9% |-----------------|
 Orthonormalize:                             0.035     0.002   0.0% |
  calc_s_matrix:                             0.007     0.007   0.0% |
  inverse-cholesky:                          0.006     0.006   0.0% |
  projections:                               0.018     0.018   0.1% |
  rotate_psi_s:                              0.002     0.002   0.0% |
 RMM-DIIS:                                   0.888     0.014   0.1% |
  Apply H:                                   0.367     0.365   1.5% ||
   HMM T:                                    0.002     0.002   0.0% |
  Calculate residuals:                       0.039     0.039   0.2% |
  DIIS step:                                 0.429     0.006   0.0% |
   Calculate residuals:                      0.401     0.035   0.1% |
    Apply H:                                 0.366     0.364   1.4% ||
     HMM T:                                  0.002     0.002   0.0% |
   Construct matrix:                         0.009     0.009   0.0% |
   Linear solve:                             0.003     0.003   0.0% |
   Update trial vectors:                     0.007     0.007   0.0% |
   precondition:                             0.002     0.002   0.0% |
  Find lambda:                               0.009     0.009   0.0% |
  Update psi:                                0.003     0.003   0.0% |
  precondition:                              0.011     0.011   0.0% |
  projections:                               0.017     0.017   0.1% |
 Subspace diag:                              0.388     0.003   0.0% |
  calc_h_matrix:                             0.379     0.010   0.0% |
   Apply H:                                  0.369     0.366   1.5% ||
    HMM T:                                   0.003     0.003   0.0% |
  diagonalize:                               0.003     0.003   0.0% |
  rotate_psi:                                0.004     0.004   0.0% |
Set symmetry:                                0.001     0.001   0.0% |
Other:                                       6.658     6.658  26.5% |----------|
-------------------------------------------------------------------
Total:                                                25.090 100.0%

Memory usage: 251.46 MiB
Date: Mon Dec  2 15:46:52 2019
