
  ___ ___ ___ _ _ _  
 |   |   |_  | | | | 
 | | | | | . | | | | 
 |__ |  _|___|_____|  19.8.1
 |___|_|             

User:   sjliang@nid02305
Date:   Fri Dec 20 02:30:55 2019
Arch:   x86_64
Pid:    73176
Python: 3.6.9
gpaw:   /global/homes/s/sjliang/.conda/envs/gpaw/lib/python3.6/site-packages/gpaw
_gpaw:  /global/homes/s/sjliang/.conda/envs/gpaw/bin/gpaw-python (54c2d0d863)
ase:    /global/homes/s/sjliang/.conda/envs/gpaw/lib/python3.6/site-packages/ase (version 3.18.1)
numpy:  /global/homes/s/sjliang/.conda/envs/gpaw/lib/python3.6/site-packages/numpy (version 1.17.4)
scipy:  /global/homes/s/sjliang/.conda/envs/gpaw/lib/python3.6/site-packages/scipy (version 1.3.1)
libxc:  4.2.3
units:  Angstrom and eV
cores:  64

Input parameters:
  basis: dzp
  h: 0.1
  nbands: 64

System changes: positions, numbers, cell, pbc, initial_charges, initial_magmoms 

Initialize ...

O-setup:
  name: Oxygen
  id: 9b9d51c344dea68c822856295a461509
  Z: 8
  valence: 6
  core: 2
  charge: 0.0
  file: /global/homes/s/sjliang/gpaw/gpaw-setups-0.9.20000/O.LDA
  compensation charges: gauss, rc=0.21, lmax=2
  cutoffs: 1.17(filt), 0.83(core),
  valence states:
                energy  radius
    2s(2.00)   -23.752   0.688
    2p(4.00)    -9.195   0.598
    *s           3.459   0.688
    *p          18.016   0.598
    *d           0.000   0.619

  LCAO basis set for O:
    Name: dzp
    File: /global/homes/s/sjliang/gpaw/gpaw-setups-0.9.20000/O.dzp.basis
    Number of radial functions: 5
    Number of spherical harmonics: 13
      l=0, rc=4.3438 Bohr: 2s-sz confined orbital
      l=1, rc=5.3906 Bohr: 2p-sz confined orbital
      l=0, rc=2.2969 Bohr: 2s-dz split-valence wave
      l=1, rc=2.8906 Bohr: 2p-dz split-valence wave
      l=2, rc=5.3906 Bohr: d-type Gaussian polarization

H-setup:
  name: Hydrogen
  id: 4766778ce56282eaa64abeb28b7c1de3
  Z: 1
  valence: 1
  core: 0
  charge: 0.0
  file: /global/homes/s/sjliang/gpaw/gpaw-setups-0.9.20000/H.LDA
  compensation charges: gauss, rc=0.15, lmax=2
  cutoffs: 0.85(filt), 0.53(core),
  valence states:
                energy  radius
    1s(1.00)    -6.353   0.476
    *s          20.858   0.476
    *p           0.000   0.476

  LCAO basis set for H:
    Name: dzp
    File: /global/homes/s/sjliang/gpaw/gpaw-setups-0.9.20000/H.dzp.basis
    Number of radial functions: 3
    Number of spherical harmonics: 5
      l=0, rc=6.4219 Bohr: 1s-sz confined orbital
      l=0, rc=3.6094 Bohr: 1s-dz split-valence wave
      l=1, rc=6.4219 Bohr: p-type Gaussian polarization

Reference energy: -16417.327880

Spin-paired calculation

Occupation numbers:
  Fermi-Dirac: width=0.1000 eV

Convergence criteria:
  Maximum total energy change: 0.0005 eV / electron
  Maximum integral of absolute density change: 0.0001 electrons
  Maximum integral of absolute eigenstate change: 4e-08 eV^2
  Maximum number of iterations: 333

Symmetries present (total): 1

  ( 1  0  0)
  ( 0  1  0)
  ( 0  0  1)

1 k-point (Gamma)
1 k-point in the irreducible part of the Brillouin zone
       k-points in crystal coordinates                weights
   0:     0.00000000    0.00000000    0.00000000          1/1

Wave functions: Uniform real-space grid
  Kinetic energy operator: 6*3+1=19 point O(h^6) finite-difference Laplacian
  ScaLapack parameters: grid=1x1, blocksize=None
  Wavefunction extrapolation:
    Improved wavefunction reuse through dual PAW basis 

Eigensolver
   Davidson(niter=2, smin=None, normalize=True) 

Densities:
  Coarse grid: 100*48*48 grid
  Fine grid: 200*96*96 grid
  Total Charge: 0.000000 

Density mixing:
  Method: separate
  Backend: pulay
  Linear mixing parameter: 0.05
  Mixing with 5 old densities
  Damping of long wave oscillations: 50 

Hamiltonian:
  XC and Coulomb potentials evaluated on a 200*96*96 grid
  Using the LDA Exchange-Correlation functional
  Interpolation: tri-quintic (5. degree polynomial)
  Poisson solver: FastPoissonSolver using
    6*3+1=19 point O(h^6) finite-difference Laplacian stencil;
    FFT axes: [0, 1, 2];
    FST axes: [].
 

Memory estimate:
  Process memory now: 120.75 MiB
  Calculator: 6.98 MiB
    Density: 2.21 MiB
      Arrays: 0.72 MiB
      Localized functions: 1.21 MiB
      Mixer: 0.29 MiB
    Hamiltonian: 0.55 MiB
      Arrays: 0.47 MiB
      XC: 0.00 MiB
      Poisson: 0.00 MiB
      vbar: 0.09 MiB
    Wavefunctions: 4.22 MiB
      Arrays psit_nG: 1.83 MiB
      Eigensolver: 2.29 MiB
      Projections: 0.00 MiB
      Projectors: 0.10 MiB

Total number of cores used: 64
Domain decomposition: 8 x 2 x 4

Number of atoms: 24
Number of atomic orbitals: 184
Number of bands in calculation: 64
Bands to converge: occupied states only
Number of valence electrons: 64

... initialized

Initializing position-dependent things.

Density initialized from atomic densities
Creating initial wave functions:
  64 bands from LCAO basis set

    .-----------------------.  
   /|  O                    |  
  / |H  H                 H |  
 *  |  H                H O |  
 |  |                O  H O |  
 | O|HH             OH     H|  
 | H.--H--------------------.  
 | /                  O H  /   
 |H O               H     /    
 *-----------------------*     

Positions:
   0 O     -1.629520    0.502285    3.965050    ( 0.0000,  0.0000,  0.0000)
   1 H      2.427860    0.724159    4.372060    ( 0.0000,  0.0000,  0.0000)
   2 H     -1.816840    0.317217    3.011690    ( 0.0000,  0.0000,  0.0000)
   3 O     -2.248350    0.580438   -1.864200    ( 0.0000,  0.0000,  0.0000)
   4 H      2.133630    0.799881    7.177310    ( 0.0000,  0.0000,  0.0000)
   5 H     -1.636990   -0.127305   -2.185070    ( 0.0000,  0.0000,  0.0000)
   6 O     -1.359250    0.164999    1.240830    ( 0.0000,  0.0000,  0.0000)
   7 H     -1.981070    0.249749    0.501582    ( 0.0000,  0.0000,  0.0000)
   8 H     -0.807554    0.961907    1.190360    ( 0.0000,  0.0000,  0.0000)
   9 O      1.422580   -0.432387   -0.873228    ( 0.0000,  0.0000,  0.0000)
  10 H      1.835650   -1.318850   -0.893150    ( 0.0000,  0.0000,  0.0000)
  11 H      0.693834   -0.537622   -1.524040    ( 0.0000,  0.0000,  0.0000)
  12 O     -0.424195   -1.720130    7.030810    ( 0.0000,  0.0000,  0.0000)
  13 H      0.011442   -2.237810    6.343650    ( 0.0000,  0.0000,  0.0000)
  14 H     -0.981016   -2.391130   -2.396640    ( 0.0000,  0.0000,  0.0000)
  15 O      0.263076   -2.223290    1.863630    ( 0.0000,  0.0000,  0.0000)
  16 H      1.214900   -2.009040    1.883330    ( 0.0000,  0.0000,  0.0000)
  17 H     -0.171039   -1.391590    1.555430    ( 0.0000,  0.0000,  0.0000)
  18 O      0.877150    0.723858    5.687000    ( 0.0000,  0.0000,  0.0000)
  19 H      0.298959    0.951853    4.953190    ( 0.0000,  0.0000,  0.0000)
  20 H      0.504922   -0.112776    6.003330    ( 0.0000,  0.0000,  0.0000)
  21 O     -0.157204   -2.208660    3.680850    ( 0.0000,  0.0000,  0.0000)
  22 H     -0.849902    1.959660    3.733390    ( 0.0000,  0.0000,  0.0000)
  23 H     -0.648356   -1.363420    3.775020    ( 0.0000,  0.0000,  0.0000)

Unit cell:
           periodic     x           y           z      points  spacing
  1. axis:    yes    9.840000    0.000000    0.000000   100     0.0984
  2. axis:    yes    0.000000    4.920000    0.000000    48     0.1025
  3. axis:    yes    0.000000    0.000000    4.920000    48     0.1025

  Lengths:   9.840000   4.920000   4.920000
  Angles:   90.000000  90.000000  90.000000

Effective grid spacing dv^(1/3) = 0.1011

                     log10-error:    total        iterations:
           time      wfs    density  energy       fermi  poisson
iter:   1  02:31:51  +2.59   +inf   -20.446716    1      1      
iter:   2  02:31:52  +0.33  -0.77   -18.187848    4      1      
iter:   3  02:31:54  +0.22  -0.86   -15.797996    3      1      
iter:   4  02:31:55  +0.56  -0.91   -10.480384    5      1      
iter:   5  02:31:56  -0.02  -1.22   -10.365088    4      1      
iter:   6  02:31:58  +0.03  -1.27   -10.139650    3      1      
iter:   7  02:31:59  -0.20  -1.53   -10.109148    3      1      
iter:   8  02:32:00  -0.88  -1.79   -10.045008    3      1      
iter:   9  02:32:02  -1.20  -1.93   -10.021879    3      1      
iter:  10  02:32:03  -1.37  -2.14   -10.020987    3      1      
iter:  11  02:32:05  -1.71  -2.23   -10.013429    2      1      
iter:  12  02:32:06  -2.07  -2.48   -10.015498    2      1      
