
  ___ ___ ___ _ _ _  
 |   |   |_  | | | | 
 | | | | | . | | | | 
 |__ |  _|___|_____|  19.8.1
 |___|_|             

User:   sjliang@nid02305
Date:   Sun Dec  8 21:44:31 2019
Arch:   x86_64
Pid:    187647
Python: 3.6.9
gpaw:   /global/homes/s/sjliang/.conda/envs/gpaw/lib/python3.6/site-packages/gpaw
_gpaw:  /global/homes/s/sjliang/.conda/envs/gpaw/bin/gpaw-python (54c2d0d863)
ase:    /global/homes/s/sjliang/.conda/envs/gpaw/lib/python3.6/site-packages/ase (version 3.18.1)
numpy:  /global/homes/s/sjliang/.conda/envs/gpaw/lib/python3.6/site-packages/numpy (version 1.17.4)
scipy:  /global/homes/s/sjliang/.conda/envs/gpaw/lib/python3.6/site-packages/scipy (version 1.3.1)
libxc:  4.2.3
units:  Angstrom and eV
cores:  16

Reading from H2O_laser_gs.gpw
Read dipole, energy, free_energy
Reading input parameters:
  basis: dzp
  h: 0.2
  nbands: 4

Initialize ...

O-setup:
  name: Oxygen
  id: 9b9d51c344dea68c822856295a461509
  Z: 8
  valence: 6
  core: 2
  charge: 0.0
  file: /global/homes/s/sjliang/gpaw/gpaw-setups-0.9.20000/O.LDA
  compensation charges: gauss, rc=0.21, lmax=2
  cutoffs: 1.17(filt), 0.83(core),
  valence states:
                energy  radius
    2s(2.00)   -23.752   0.688
    2p(4.00)    -9.195   0.598
    *s           3.459   0.688
    *p          18.016   0.598
    *d           0.000   0.619

  LCAO basis set for O:
    Name: dzp
    File: /global/homes/s/sjliang/gpaw/gpaw-setups-0.9.20000/O.dzp.basis
    Number of radial functions: 5
    Number of spherical harmonics: 13
      l=0, rc=4.3438 Bohr: 2s-sz confined orbital
      l=1, rc=5.3906 Bohr: 2p-sz confined orbital
      l=0, rc=2.2969 Bohr: 2s-dz split-valence wave
      l=1, rc=2.8906 Bohr: 2p-dz split-valence wave
      l=2, rc=5.3906 Bohr: d-type Gaussian polarization

H-setup:
  name: Hydrogen
  id: 4766778ce56282eaa64abeb28b7c1de3
  Z: 1
  valence: 1
  core: 0
  charge: 0.0
  file: /global/homes/s/sjliang/gpaw/gpaw-setups-0.9.20000/H.LDA
  compensation charges: gauss, rc=0.15, lmax=2
  cutoffs: 0.85(filt), 0.53(core),
  valence states:
                energy  radius
    1s(1.00)    -6.353   0.476
    *s          20.858   0.476
    *p           0.000   0.476

  LCAO basis set for H:
    Name: dzp
    File: /global/homes/s/sjliang/gpaw/gpaw-setups-0.9.20000/H.dzp.basis
    Number of radial functions: 3
    Number of spherical harmonics: 5
      l=0, rc=6.4219 Bohr: 1s-sz confined orbital
      l=0, rc=3.6094 Bohr: 1s-dz split-valence wave
      l=1, rc=6.4219 Bohr: p-type Gaussian polarization

Reference energy: -2052.165985

Spin-paired calculation

Occupation numbers:
  Fermi-Dirac: width=0.0000 eV

Convergence criteria:
  Maximum total energy change: 0.0005 eV / electron
  Maximum integral of absolute density change: 0.0001 electrons
  Maximum integral of absolute eigenstate change: 4e-08 eV^2
  Maximum number of iterations: 333

Symmetries present (total): 1

  ( 1  0  0)
  ( 0  1  0)
  ( 0  0  1)

1 k-point (Gamma)
1 k-point in the irreducible part of the Brillouin zone
       k-points in crystal coordinates                weights
   0:     0.00000000    0.00000000    0.00000000          1/1

Wave functions: Uniform real-space grid
  Kinetic energy operator: 6*3+1=19 point O(h^6) finite-difference Laplacian
  ScaLapack parameters: grid=1x1, blocksize=None
  Wavefunction extrapolation:
    Wavefunctions kept unchanged if atoms move 

Eigensolver
   Davidson(niter=2, smin=None, normalize=True) 

Densities:
  Coarse grid: 40*48*44 grid
  Fine grid: 80*96*88 grid
  Total Charge: 0.000000 

No density mixing

Hamiltonian:
  XC and Coulomb potentials evaluated on a 80*96*88 grid
  Using the LDA Exchange-Correlation functional
  Interpolation: tri-quintic (5. degree polynomial)
  Poisson solver: FastPoissonSolver using
    6*3+1=19 point O(h^6) finite-difference Laplacian stencil;
    FFT axes: [];
    FST axes: [0, 2, 1].
 

Memory estimate:
  Process memory now: 117.98 MiB
  Calculator: 2.54 MiB
    Density: 1.03 MiB
      Arrays: 0.95 MiB
      Localized functions: 0.08 MiB
      Mixer: 0.00 MiB
    Hamiltonian: 0.63 MiB
      Arrays: 0.62 MiB
      XC: 0.00 MiB
      Poisson: 0.00 MiB
      vbar: 0.01 MiB
    Wavefunctions: 0.88 MiB
      Arrays psit_nG: 0.27 MiB
      Eigensolver: 0.61 MiB
      Projections: 0.00 MiB
      Projectors: 0.01 MiB

Total number of cores used: 16
Domain decomposition: 2 x 4 x 2

Number of atoms: 3
Number of atomic orbitals: 23
Number of bands in calculation: 4
Bands to converge: occupied states only
Number of valence electrons: 8

... initialized

Initializing position-dependent things.

Density initialized from wave functions
       .-------------------.  
      /|                   |  
     / |                   |  
    /  |                   |  
   /   |                   |  
  /    |                   |  
 *     |                   |  
 |     |                   |  
 |     |      O            |  
 |     |      H            |  
 |     |                   |  
 |     .-------------------.  
 |    /                   /   
 |   /                   /    
 |  /                   /     
 | /                   /      
 |/                   /       
 *-------------------*        

Positions:
   0 O      4.000000    4.763239    4.596309    ( 0.0000,  0.0000,  0.0000)
   1 H      4.000000    5.526478    4.000000    ( 0.0000,  0.0000,  0.0000)
   2 H      4.000000    4.000000    4.000000    ( 0.0000,  0.0000,  0.0000)



------------------------------------------
  Time-propagation TDDFT                  
------------------------------------------

Charge epsilon:  1e-05
Solver:  BiCGStab
Preconditioner:  None
Propagator:  EFSICN
States per processor =  4

Forces in eV/Ang:
  0 O    -0.00000    0.00000    0.11461
  1 H     0.00000    0.20228   -0.06614
  2 H     0.00000   -0.20228   -0.06614

Initializing position-dependent things.

Density initialized from wave functions
       .-------------------.  
      /|                   |  
     / |                   |  
    /  |                   |  
   /   |                   |  
  /    |                   |  
 *     |                   |  
 |     |                   |  
 |     |      O            |  
 |     |      H            |  
 |     |                   |  
 |     .-------------------.  
 |    /                   /   
 |   /                   /    
 |  /                   /     
 | /                   /      
 |/                   /       
 *-------------------*        

Positions:
   0 O      4.000000    4.763239    4.596309    ( 0.0000,  0.0000,  0.0000)
   1 H      4.000000    5.526478    4.000000    ( 0.0000,  0.0000,  0.0000)
   2 H      4.000000    4.000000    4.000000    ( 0.0000,  0.0000,  0.0000)


Forces in eV/Ang:
  0 O    -0.00000    0.00000    0.11461
  1 H     0.00000    0.20228   -0.06614
  2 H     0.00000   -0.20228   -0.06614

Initializing position-dependent things.

Density initialized from wave functions
       .-------------------.  
      /|                   |  
     / |                   |  
    /  |                   |  
   /   |                   |  
  /    |                   |  
 *     |                   |  
 |     |                   |  
 |     |      O            |  
 |     |      H            |  
 |     |                   |  
 |     .-------------------.  
 |    /                   /   
 |   /                   /    
 |  /                   /     
 | /                   /      
 |/                   /       
 *-------------------*        

Positions:
   0 O      4.000000    4.763239    4.596309    ( 0.0000,  0.0000,  0.0000)
   1 H      4.000000    5.526478    4.000000    ( 0.0000,  0.0000,  0.0000)
   2 H      4.000000    4.000000    4.000000    ( 0.0000,  0.0000,  0.0000)


Forces in eV/Ang:
  0 O    -0.00000    0.00000    0.11446
  1 H     0.00000    0.20222   -0.06612
  2 H     0.00000   -0.20222   -0.06612

Initializing position-dependent things.

Density initialized from wave functions
       .-------------------.  
      /|                   |  
     / |                   |  
    /  |                   |  
   /   |                   |  
  /    |                   |  
 *     |                   |  
 |     |                   |  
 |     |      O            |  
 |     |      H            |  
 |     |                   |  
 |     .-------------------.  
 |    /                   /   
 |   /                   /    
 |  /                   /     
 | /                   /      
 |/                   /       
 *-------------------*        

Positions:
   0 O      4.000000    4.763239    4.596309    ( 0.0000,  0.0000,  0.0000)
   1 H      4.000000    5.526478    4.000000    ( 0.0000,  0.0000,  0.0000)
   2 H      4.000000    4.000000    4.000000    ( 0.0000,  0.0000,  0.0000)


Forces in eV/Ang:
  0 O    -0.00000    0.00000    0.11355
  1 H    -0.00000    0.20221   -0.06616
  2 H     0.00000   -0.20221   -0.06616

Initializing position-dependent things.

Density initialized from wave functions
       .-------------------.  
      /|                   |  
     / |                   |  
    /  |                   |  
   /   |                   |  
  /    |                   |  
 *     |                   |  
 |     |                   |  
 |     |      O            |  
 |     |      H            |  
 |     |                   |  
 |     .-------------------.  
 |    /                   /   
 |   /                   /    
 |  /                   /     
 | /                   /      
 |/                   /       
 *-------------------*        

Positions:
   0 O      4.000000    4.763239    4.596309    ( 0.0000,  0.0000,  0.0000)
   1 H      4.000000    5.526480    3.999999    ( 0.0000,  0.0000,  0.0000)
   2 H      4.000000    3.999998    3.999999    ( 0.0000,  0.0000,  0.0000)


Forces in eV/Ang:
  0 O    -0.00000    0.00000    0.11310
  1 H     0.00000    0.20204   -0.06608
  2 H     0.00000   -0.20204   -0.06608

Initializing position-dependent things.

Density initialized from wave functions
       .-------------------.  
      /|                   |  
     / |                   |  
    /  |                   |  
   /   |                   |  
  /    |                   |  
 *     |                   |  
 |     |                   |  
 |     |      O            |  
 |     |      H            |  
 |     |                   |  
 |     .-------------------.  
 |    /                   /   
 |   /                   /    
 |  /                   /     
 | /                   /      
 |/                   /       
 *-------------------*        

Positions:
   0 O      4.000000    4.763239    4.596309    ( 0.0000,  0.0000,  0.0000)
   1 H      4.000000    5.526480    3.999999    ( 0.0000,  0.0000,  0.0000)
   2 H      4.000000    3.999998    3.999999    ( 0.0000,  0.0000,  0.0000)


Forces in eV/Ang:
  0 O    -0.00000    0.00000    0.11310
  1 H     0.00000    0.20204   -0.06608
  2 H     0.00000   -0.20204   -0.06608

Initializing position-dependent things.

Density initialized from wave functions
       .-------------------.  
      /|                   |  
     / |                   |  
    /  |                   |  
   /   |                   |  
  /    |                   |  
 *     |                   |  
 |     |                   |  
 |     |      O            |  
 |     |      H            |  
 |     |                   |  
 |     .-------------------.  
 |    /                   /   
 |   /                   /    
 |  /                   /     
 | /                   /      
 |/                   /       
 *-------------------*        

Positions:
   0 O      4.000000    4.763239    4.596309    ( 0.0000,  0.0000,  0.0000)
   1 H      4.000000    5.526481    3.999999    ( 0.0000,  0.0000,  0.0000)
   2 H      4.000000    3.999997    3.999999    ( 0.0000,  0.0000,  0.0000)


Forces in eV/Ang:
  0 O    -0.00000    0.00000    0.11234
  1 H    -0.00000    0.20176   -0.06596
  2 H     0.00000   -0.20176   -0.06596

Initializing position-dependent things.

Density initialized from wave functions
       .-------------------.  
      /|                   |  
     / |                   |  
    /  |                   |  
   /   |                   |  
  /    |                   |  
 *     |                   |  
 |     |                   |  
 |     |      O            |  
 |     |      H            |  
 |     |                   |  
 |     .-------------------.  
 |    /                   /   
 |   /                   /    
 |  /                   /     
 | /                   /      
 |/                   /       
 *-------------------*        

Positions:
   0 O      4.000000    4.763239    4.596309    ( 0.0000,  0.0000,  0.0000)
   1 H      4.000000    5.526481    3.999999    ( 0.0000,  0.0000,  0.0000)
   2 H      4.000000    3.999997    3.999999    ( 0.0000,  0.0000,  0.0000)


Forces in eV/Ang:
  0 O    -0.00000    0.00000    0.11415
  1 H    -0.00000    0.20219   -0.06612
  2 H    -0.00000   -0.20219   -0.06612

Initializing position-dependent things.

Density initialized from wave functions
       .-------------------.  
      /|                   |  
     / |                   |  
    /  |                   |  
   /   |                   |  
  /    |                   |  
 *     |                   |  
 |     |                   |  
 |     |      O            |  
 |     |      H            |  
 |     |                   |  
 |     .-------------------.  
 |    /                   /   
 |   /                   /    
 |  /                   /     
 | /                   /      
 |/                   /       
 *-------------------*        

Positions:
   0 O      4.000000    4.763239    4.596309    ( 0.0000,  0.0000,  0.0000)
   1 H      4.000000    5.526484    3.999998    ( 0.0000,  0.0000,  0.0000)
   2 H      4.000000    3.999994    3.999998    ( 0.0000,  0.0000,  0.0000)


Forces in eV/Ang:
  0 O    -0.00000    0.00000    0.11309
  1 H     0.00000    0.20180   -0.06595
  2 H     0.00000   -0.20180   -0.06595

Initializing position-dependent things.

Density initialized from wave functions
       .-------------------.  
      /|                   |  
     / |                   |  
    /  |                   |  
   /   |                   |  
  /    |                   |  
 *     |                   |  
 |     |                   |  
 |     |      O            |  
 |     |      H            |  
 |     |                   |  
 |     .-------------------.  
 |    /                   /   
 |   /                   /    
 |  /                   /     
 | /                   /      
 |/                   /       
 *-------------------*        

Positions:
   0 O      4.000000    4.763239    4.596309    ( 0.0000,  0.0000,  0.0000)
   1 H      4.000000    5.526484    3.999998    ( 0.0000,  0.0000,  0.0000)
   2 H      4.000000    3.999994    3.999998    ( 0.0000,  0.0000,  0.0000)


Forces in eV/Ang:
  0 O    -0.00000    0.00000    0.11309
  1 H     0.00000    0.20180   -0.06595
  2 H     0.00000   -0.20180   -0.06595

Initializing position-dependent things.

Density initialized from wave functions
       .-------------------.  
      /|                   |  
     / |                   |  
    /  |                   |  
   /   |                   |  
  /    |                   |  
 *     |                   |  
 |     |                   |  
 |     |      O            |  
 |     |      H            |  
 |     |                   |  
 |     .-------------------.  
 |    /                   /   
 |   /                   /    
 |  /                   /     
 | /                   /      
 |/                   /       
 *-------------------*        

Positions:
   0 O      4.000000    4.763239    4.596309    ( 0.0000,  0.0000,  0.0000)
   1 H      4.000000    5.526488    3.999997    ( 0.0000,  0.0000,  0.0000)
   2 H      4.000000    3.999990    3.999997    ( 0.0000,  0.0000,  0.0000)


Forces in eV/Ang:
  0 O    -0.00000    0.00000    0.11173
  1 H     0.00000    0.20130   -0.06572
  2 H     0.00000   -0.20130   -0.06572

Initializing position-dependent things.

Density initialized from wave functions
       .-------------------.  
      /|                   |  
     / |                   |  
    /  |                   |  
   /   |                   |  
  /    |                   |  
 *     |                   |  
 |     |                   |  
 |     |      O            |  
 |     |      H            |  
 |     |                   |  
 |     .-------------------.  
 |    /                   /   
 |   /                   /    
 |  /                   /     
 | /                   /      
 |/                   /       
 *-------------------*        

Positions:
   0 O      4.000000    4.763239    4.596309    ( 0.0000,  0.0000,  0.0000)
   1 H      4.000000    5.526488    3.999997    ( 0.0000,  0.0000,  0.0000)
   2 H      4.000000    3.999990    3.999997    ( 0.0000,  0.0000,  0.0000)


Forces in eV/Ang:
  0 O    -0.00000    0.00000    0.11412
  1 H     0.00000    0.20200   -0.06593
  2 H     0.00000   -0.20200   -0.06593

Initializing position-dependent things.

Density initialized from wave functions
       .-------------------.  
      /|                   |  
     / |                   |  
    /  |                   |  
   /   |                   |  
  /    |                   |  
 *     |                   |  
 |     |                   |  
 |     |      O            |  
 |     |      H            |  
 |     |                   |  
 |     .-------------------.  
 |    /                   /   
 |   /                   /    
 |  /                   /     
 | /                   /      
 |/                   /       
 *-------------------*        

Positions:
   0 O      4.000000    4.763239    4.596309    ( 0.0000,  0.0000,  0.0000)
   1 H      4.000000    5.526492    3.999995    ( 0.0000,  0.0000,  0.0000)
   2 H      4.000000    3.999986    3.999995    ( 0.0000,  0.0000,  0.0000)


Forces in eV/Ang:
  0 O    -0.00000    0.00000    0.11246
  1 H     0.00000    0.20138   -0.06565
  2 H     0.00000   -0.20138   -0.06565

Initializing position-dependent things.

Density initialized from wave functions
       .-------------------.  
      /|                   |  
     / |                   |  
    /  |                   |  
   /   |                   |  
  /    |                   |  
 *     |                   |  
 |     |                   |  
 |     |      O            |  
 |     |      H            |  
 |     |                   |  
 |     .-------------------.  
 |    /                   /   
 |   /                   /    
 |  /                   /     
 | /                   /      
 |/                   /       
 *-------------------*        

Positions:
   0 O      4.000000    4.763239    4.596309    ( 0.0000,  0.0000,  0.0000)
   1 H      4.000000    5.526492    3.999995    ( 0.0000,  0.0000,  0.0000)
   2 H      4.000000    3.999986    3.999995    ( 0.0000,  0.0000,  0.0000)


Forces in eV/Ang:
  0 O    -0.00000    0.00000    0.11246
  1 H     0.00000    0.20138   -0.06565
  2 H     0.00000   -0.20138   -0.06565

Initializing position-dependent things.

Density initialized from wave functions
       .-------------------.  
      /|                   |  
     / |                   |  
    /  |                   |  
   /   |                   |  
  /    |                   |  
 *     |                   |  
 |     |                   |  
 |     |      O            |  
 |     |      H            |  
 |     |                   |  
 |     .-------------------.  
 |    /                   /   
 |   /                   /    
 |  /                   /     
 | /                   /      
 |/                   /       
 *-------------------*        

Positions:
   0 O      4.000000    4.763239    4.596310    ( 0.0000,  0.0000,  0.0000)
   1 H      4.000000    5.526497    3.999994    ( 0.0000,  0.0000,  0.0000)
   2 H      4.000000    3.999981    3.999994    ( 0.0000,  0.0000,  0.0000)


Forces in eV/Ang:
  0 O    -0.00000    0.00000    0.11049
  1 H     0.00000    0.20065   -0.06532
  2 H     0.00000   -0.20065   -0.06532

Initializing position-dependent things.

Density initialized from wave functions
       .-------------------.  
      /|                   |  
     / |                   |  
    /  |                   |  
   /   |                   |  
  /    |                   |  
 *     |                   |  
 |     |                   |  
 |     |      O            |  
 |     |      H            |  
 |     |                   |  
 |     .-------------------.  
 |    /                   /   
 |   /                   /    
 |  /                   /     
 | /                   /      
 |/                   /       
 *-------------------*        

Positions:
   0 O      4.000000    4.763239    4.596310    ( 0.0000,  0.0000,  0.0000)
   1 H      4.000000    5.526497    3.999994    ( 0.0000,  0.0000,  0.0000)
   2 H      4.000000    3.999981    3.999994    ( 0.0000,  0.0000,  0.0000)


Forces in eV/Ang:
  0 O    -0.00000    0.00000    0.11420
  1 H    -0.00000    0.20167   -0.06568
  2 H    -0.00000   -0.20167   -0.06568

Initializing position-dependent things.

Density initialized from wave functions
       .-------------------.  
      /|                   |  
     / |                   |  
    /  |                   |  
   /   |                   |  
  /    |                   |  
 *     |                   |  
 |     |                   |  
 |     |      O            |  
 |     |      H            |  
 |     |                   |  
 |     .-------------------.  
 |    /                   /   
 |   /                   /    
 |  /                   /     
 | /                   /      
 |/                   /       
 *-------------------*        

Positions:
   0 O      4.000000    4.763239    4.596310    ( 0.0000,  0.0000,  0.0000)
   1 H      4.000000    5.526503    3.999992    ( 0.0000,  0.0000,  0.0000)
   2 H      4.000000    3.999975    3.999992    ( 0.0000,  0.0000,  0.0000)


Forces in eV/Ang:
  0 O    -0.00000    0.00000    0.11194
  1 H    -0.00000    0.20083   -0.06530
  2 H    -0.00000   -0.20083   -0.06530

Initializing position-dependent things.

Density initialized from wave functions
       .-------------------.  
      /|                   |  
     / |                   |  
    /  |                   |  
   /   |                   |  
  /    |                   |  
 *     |                   |  
 |     |                   |  
 |     |      O            |  
 |     |      H            |  
 |     |                   |  
 |     .-------------------.  
 |    /                   /   
 |   /                   /    
 |  /                   /     
 | /                   /      
 |/                   /       
 *-------------------*        

Positions:
   0 O      4.000000    4.763239    4.596310    ( 0.0000,  0.0000,  0.0000)
   1 H      4.000000    5.526503    3.999992    ( 0.0000,  0.0000,  0.0000)
   2 H      4.000000    3.999975    3.999992    ( 0.0000,  0.0000,  0.0000)


Forces in eV/Ang:
  0 O    -0.00000    0.00000    0.11194
  1 H    -0.00000    0.20083   -0.06530
  2 H    -0.00000   -0.20083   -0.06530

Initializing position-dependent things.

Density initialized from wave functions
       .-------------------.  
      /|                   |  
     / |                   |  
    /  |                   |  
   /   |                   |  
  /    |                   |  
 *     |                   |  
 |     |                   |  
 |     |      O            |  
 |     |      H            |  
 |     |                   |  
 |     .-------------------.  
 |    /                   /   
 |   /                   /    
 |  /                   /     
 | /                   /      
 |/                   /       
 *-------------------*        

Positions:
   0 O      4.000000    4.763239    4.596310    ( 0.0000,  0.0000,  0.0000)
   1 H      4.000000    5.526509    3.999990    ( 0.0000,  0.0000,  0.0000)
   2 H      4.000000    3.999969    3.999990    ( 0.0000,  0.0000,  0.0000)


Forces in eV/Ang:
  0 O    -0.00000    0.00000    0.10937
  1 H    -0.00000    0.19987   -0.06486
  2 H     0.00000   -0.19987   -0.06486

Initializing position-dependent things.

Density initialized from wave functions
       .-------------------.  
      /|                   |  
     / |                   |  
    /  |                   |  
   /   |                   |  
  /    |                   |  
 *     |                   |  
 |     |                   |  
 |     |      O            |  
 |     |      H            |  
 |     |                   |  
 |     .-------------------.  
 |    /                   /   
 |   /                   /    
 |  /                   /     
 | /                   /      
 |/                   /       
 *-------------------*        

Positions:
   0 O      4.000000    4.763239    4.596310    ( 0.0000,  0.0000,  0.0000)
   1 H      4.000000    5.526509    3.999990    ( 0.0000,  0.0000,  0.0000)
   2 H      4.000000    3.999969    3.999990    ( 0.0000,  0.0000,  0.0000)


Forces in eV/Ang:
  0 O    -0.00000    0.00000    0.11396
  1 H     0.00000    0.20121   -0.06534
  2 H     0.00000   -0.20121   -0.06534

Initializing position-dependent things.

Density initialized from wave functions
       .-------------------.  
      /|                   |  
     / |                   |  
    /  |                   |  
   /   |                   |  
  /    |                   |  
 *     |                   |  
 |     |                   |  
 |     |      O            |  
 |     |      H            |  
 |     |                   |  
 |     .-------------------.  
 |    /                   /   
 |   /                   /    
 |  /                   /     
 | /                   /      
 |/                   /       
 *-------------------*        

Positions:
   0 O      4.000000    4.763239    4.596310    ( 0.0000,  0.0000,  0.0000)
   1 H      4.000000    5.526517    3.999987    ( 0.0000,  0.0000,  0.0000)
   2 H      4.000000    3.999961    3.999987    ( 0.0000,  0.0000,  0.0000)


Forces in eV/Ang:
  0 O    -0.00000    0.00000    0.11110
  1 H     0.00000    0.20014   -0.06486
  2 H     0.00000   -0.20014   -0.06486

Initializing position-dependent things.

Density initialized from wave functions
       .-------------------.  
      /|                   |  
     / |                   |  
    /  |                   |  
   /   |                   |  
  /    |                   |  
 *     |                   |  
 |     |                   |  
 |     |      O            |  
 |     |      H            |  
 |     |                   |  
 |     .-------------------.  
 |    /                   /   
 |   /                   /    
 |  /                   /     
 | /                   /      
 |/                   /       
 *-------------------*        

Positions:
   0 O      4.000000    4.763239    4.596310    ( 0.0000,  0.0000,  0.0000)
   1 H      4.000000    5.526517    3.999987    ( 0.0000,  0.0000,  0.0000)
   2 H      4.000000    3.999961    3.999987    ( 0.0000,  0.0000,  0.0000)


Forces in eV/Ang:
  0 O    -0.00000    0.00000    0.11110
  1 H     0.00000    0.20014   -0.06486
  2 H     0.00000   -0.20014   -0.06486

Initializing position-dependent things.

Density initialized from wave functions
       .-------------------.  
      /|                   |  
     / |                   |  
    /  |                   |  
   /   |                   |  
  /    |                   |  
 *     |                   |  
 |     |                   |  
 |     |      O            |  
 |     |      H            |  
 |     |                   |  
 |     .-------------------.  
 |    /                   /   
 |   /                   /    
 |  /                   /     
 | /                   /      
 |/                   /       
 *-------------------*        

Positions:
   0 O      4.000000    4.763239    4.596311    ( 0.0000,  0.0000,  0.0000)
   1 H      4.000000    5.526525    3.999985    ( 0.0000,  0.0000,  0.0000)
   2 H      4.000000    3.999953    3.999985    ( 0.0000,  0.0000,  0.0000)


Forces in eV/Ang:
  0 O    -0.00000    0.00000    0.10794
  1 H     0.00000    0.19897   -0.06433
  2 H     0.00000   -0.19897   -0.06433

Initializing position-dependent things.

Density initialized from wave functions
       .-------------------.  
      /|                   |  
     / |                   |  
    /  |                   |  
   /   |                   |  
  /    |                   |  
 *     |                   |  
 |     |                   |  
 |     |      O            |  
 |     |      H            |  
 |     |                   |  
 |     .-------------------.  
 |    /                   /   
 |   /                   /    
 |  /                   /     
 | /                   /      
 |/                   /       
 *-------------------*        

Positions:
   0 O      4.000000    4.763239    4.596311    ( 0.0000,  0.0000,  0.0000)
   1 H      4.000000    5.526525    3.999985    ( 0.0000,  0.0000,  0.0000)
   2 H      4.000000    3.999953    3.999985    ( 0.0000,  0.0000,  0.0000)


Forces in eV/Ang:
  0 O    -0.00000    0.00000    0.11363
  1 H     0.00000    0.20061   -0.06493
  2 H     0.00000   -0.20061   -0.06493

Initializing position-dependent things.

Density initialized from wave functions
       .-------------------.  
      /|                   |  
     / |                   |  
    /  |                   |  
   /   |                   |  
  /    |                   |  
 *     |                   |  
 |     |                   |  
 |     |      O            |  
 |     |      H            |  
 |     |                   |  
 |     .-------------------.  
 |    /                   /   
 |   /                   /    
 |  /                   /     
 | /                   /      
 |/                   /       
 *-------------------*        

Positions:
   0 O      4.000000    4.763239    4.596311    ( 0.0000,  0.0000,  0.0000)
   1 H      4.000000    5.526534    3.999982    ( 0.0000,  0.0000,  0.0000)
   2 H      4.000000    3.999944    3.999982    ( 0.0000,  0.0000,  0.0000)


Forces in eV/Ang:
  0 O    -0.00000    0.00000    0.11017
  1 H     0.00000    0.19932   -0.06435
  2 H     0.00000   -0.19932   -0.06435

Initializing position-dependent things.

Density initialized from wave functions
       .-------------------.  
      /|                   |  
     / |                   |  
    /  |                   |  
   /   |                   |  
  /    |                   |  
 *     |                   |  
 |     |                   |  
 |     |      O            |  
 |     |      H            |  
 |     |                   |  
 |     .-------------------.  
 |    /                   /   
 |   /                   /    
 |  /                   /     
 | /                   /      
 |/                   /       
 *-------------------*        

Positions:
   0 O      4.000000    4.763239    4.596311    ( 0.0000,  0.0000,  0.0000)
   1 H      4.000000    5.526534    3.999982    ( 0.0000,  0.0000,  0.0000)
   2 H      4.000000    3.999944    3.999982    ( 0.0000,  0.0000,  0.0000)


Forces in eV/Ang:
  0 O    -0.00000    0.00000    0.11017
  1 H     0.00000    0.19932   -0.06435
  2 H     0.00000   -0.19932   -0.06435

Initializing position-dependent things.

Density initialized from wave functions
       .-------------------.  
      /|                   |  
     / |                   |  
    /  |                   |  
   /   |                   |  
  /    |                   |  
 *     |                   |  
 |     |                   |  
 |     |      O            |  
 |     |      H            |  
 |     |                   |  
 |     .-------------------.  
 |    /                   /   
 |   /                   /    
 |  /                   /     
 | /                   /      
 |/                   /       
 *-------------------*        

Positions:
   0 O      4.000000    4.763239    4.596311    ( 0.0000,  0.0000,  0.0000)
   1 H      4.000000    5.526543    3.999979    ( 0.0000,  0.0000,  0.0000)
   2 H      4.000000    3.999935    3.999979    ( 0.0000,  0.0000,  0.0000)


Forces in eV/Ang:
  0 O     0.00000    0.00000    0.10641
  1 H     0.00000    0.19792   -0.06372
  2 H     0.00000   -0.19792   -0.06372

Initializing position-dependent things.

Density initialized from wave functions
       .-------------------.  
      /|                   |  
     / |                   |  
    /  |                   |  
   /   |                   |  
  /    |                   |  
 *     |                   |  
 |     |                   |  
 |     |      O            |  
 |     |      H            |  
 |     |                   |  
 |     .-------------------.  
 |    /                   /   
 |   /                   /    
 |  /                   /     
 | /                   /      
 |/                   /       
 *-------------------*        

Positions:
   0 O      4.000000    4.763239    4.596311    ( 0.0000,  0.0000,  0.0000)
   1 H      4.000000    5.526543    3.999979    ( 0.0000,  0.0000,  0.0000)
   2 H      4.000000    3.999935    3.999979    ( 0.0000,  0.0000,  0.0000)


Forces in eV/Ang:
  0 O     0.00000    0.00000    0.11299
  1 H     0.00000    0.19987   -0.06444
  2 H     0.00000   -0.19987   -0.06444

Initializing position-dependent things.

Density initialized from wave functions
       .-------------------.  
      /|                   |  
     / |                   |  
    /  |                   |  
   /   |                   |  
  /    |                   |  
 *     |                   |  
 |     |                   |  
 |     |      O            |  
 |     |      H            |  
 |     |                   |  
 |     .-------------------.  
 |    /                   /   
 |   /                   /    
 |  /                   /     
 | /                   /      
 |/                   /       
 *-------------------*        

Positions:
   0 O      4.000000    4.763239    4.596312    ( 0.0000,  0.0000,  0.0000)
   1 H      4.000000    5.526554    3.999975    ( 0.0000,  0.0000,  0.0000)
   2 H      4.000000    3.999924    3.999975    ( 0.0000,  0.0000,  0.0000)


Forces in eV/Ang:
  0 O     0.00000    0.00000    0.10893
  1 H     0.00000    0.19836   -0.06376
  2 H     0.00000   -0.19836   -0.06376

Initializing position-dependent things.

Density initialized from wave functions
       .-------------------.  
      /|                   |  
     / |                   |  
    /  |                   |  
   /   |                   |  
  /    |                   |  
 *     |                   |  
 |     |                   |  
 |     |      O            |  
 |     |      H            |  
 |     |                   |  
 |     .-------------------.  
 |    /                   /   
 |   /                   /    
 |  /                   /     
 | /                   /      
 |/                   /       
 *-------------------*        

Positions:
   0 O      4.000000    4.763239    4.596312    ( 0.0000,  0.0000,  0.0000)
   1 H      4.000000    5.526554    3.999975    ( 0.0000,  0.0000,  0.0000)
   2 H      4.000000    3.999924    3.999975    ( 0.0000,  0.0000,  0.0000)


Forces in eV/Ang:
  0 O     0.00000    0.00000    0.10893
  1 H     0.00000    0.19836   -0.06376
  2 H     0.00000   -0.19836   -0.06376

Initializing position-dependent things.

Density initialized from wave functions
       .-------------------.  
      /|                   |  
     / |                   |  
    /  |                   |  
   /   |                   |  
  /    |                   |  
 *     |                   |  
 |     |                   |  
 |     |      O            |  
 |     |      H            |  
 |     |                   |  
 |     .-------------------.  
 |    /                   /   
 |   /                   /    
 |  /                   /     
 | /                   /      
 |/                   /       
 *-------------------*        

Positions:
   0 O      4.000000    4.763239    4.596312    ( 0.0000,  0.0000,  0.0000)
   1 H      4.000000    5.526565    3.999972    ( 0.0000,  0.0000,  0.0000)
   2 H      4.000000    3.999913    3.999972    ( 0.0000,  0.0000,  0.0000)


Forces in eV/Ang:
  0 O     0.00000    0.00000    0.10459
  1 H     0.00000    0.19675   -0.06303
  2 H     0.00000   -0.19675   -0.06303

Initializing position-dependent things.

Density initialized from wave functions
       .-------------------.  
      /|                   |  
     / |                   |  
    /  |                   |  
   /   |                   |  
  /    |                   |  
 *     |                   |  
 |     |                   |  
 |     |      O            |  
 |     |      H            |  
 |     |                   |  
 |     .-------------------.  
 |    /                   /   
 |   /                   /    
 |  /                   /     
 | /                   /      
 |/                   /       
 *-------------------*        

Positions:
   0 O      4.000000    4.763239    4.596312    ( 0.0000,  0.0000,  0.0000)
   1 H      4.000000    5.526565    3.999972    ( 0.0000,  0.0000,  0.0000)
   2 H      4.000000    3.999913    3.999972    ( 0.0000,  0.0000,  0.0000)


Forces in eV/Ang:
  0 O    -0.00000    0.00000    0.11230
  1 H     0.00000    0.19899   -0.06386
  2 H     0.00000   -0.19899   -0.06386

Initializing position-dependent things.

Density initialized from wave functions
       .-------------------.  
      /|                   |  
     / |                   |  
    /  |                   |  
   /   |                   |  
  /    |                   |  
 *     |                   |  
 |     |                   |  
 |     |      O            |  
 |     |      H            |  
 |     |                   |  
 |     .-------------------.  
 |    /                   /   
 |   /                   /    
 |  /                   /     
 | /                   /      
 |/                   /       
 *-------------------*        

Positions:
   0 O      4.000000    4.763239    4.596312    ( 0.0000,  0.0000,  0.0000)
   1 H      4.000000    5.526577    3.999968    ( 0.0000,  0.0000,  0.0000)
   2 H      4.000000    3.999901    3.999968    ( 0.0000,  0.0000,  0.0000)


Forces in eV/Ang:
  0 O    -0.00000    0.00000    0.10766
  1 H     0.00000    0.19727   -0.06308
  2 H     0.00000   -0.19727   -0.06308

Initializing position-dependent things.

Density initialized from wave functions
       .-------------------.  
      /|                   |  
     / |                   |  
    /  |                   |  
   /   |                   |  
  /    |                   |  
 *     |                   |  
 |     |                   |  
 |     |      O            |  
 |     |      H            |  
 |     |                   |  
 |     .-------------------.  
 |    /                   /   
 |   /                   /    
 |  /                   /     
 | /                   /      
 |/                   /       
 *-------------------*        

Positions:
   0 O      4.000000    4.763239    4.596312    ( 0.0000,  0.0000,  0.0000)
   1 H      4.000000    5.526577    3.999968    ( 0.0000,  0.0000,  0.0000)
   2 H      4.000000    3.999901    3.999968    ( 0.0000,  0.0000,  0.0000)


Forces in eV/Ang:
  0 O    -0.00000    0.00000    0.10766
  1 H     0.00000    0.19727   -0.06308
  2 H     0.00000   -0.19727   -0.06308

Initializing position-dependent things.

Density initialized from wave functions
       .-------------------.  
      /|                   |  
     / |                   |  
    /  |                   |  
   /   |                   |  
  /    |                   |  
 *     |                   |  
 |     |                   |  
 |     |      O            |  
 |     |      H            |  
 |     |                   |  
 |     .-------------------.  
 |    /                   /   
 |   /                   /    
 |  /                   /     
 | /                   /      
 |/                   /       
 *-------------------*        

Positions:
   0 O      4.000000    4.763239    4.596313    ( 0.0000,  0.0000,  0.0000)
   1 H      4.000000    5.526589    3.999964    ( 0.0000,  0.0000,  0.0000)
   2 H      4.000000    3.999889    3.999964    ( 0.0000,  0.0000,  0.0000)


Forces in eV/Ang:
  0 O    -0.00000    0.00000    0.10273
  1 H     0.00000    0.19543   -0.06225
  2 H     0.00000   -0.19543   -0.06225

Initializing position-dependent things.

Density initialized from wave functions
       .-------------------.  
      /|                   |  
     / |                   |  
    /  |                   |  
   /   |                   |  
  /    |                   |  
 *     |                   |  
 |     |                   |  
 |     |      O            |  
 |     |      H            |  
 |     |                   |  
 |     .-------------------.  
 |    /                   /   
 |   /                   /    
 |  /                   /     
 | /                   /      
 |/                   /       
 *-------------------*        

Positions:
   0 O      4.000000    4.763239    4.596313    ( 0.0000,  0.0000,  0.0000)
   1 H      4.000000    5.526589    3.999964    ( 0.0000,  0.0000,  0.0000)
   2 H      4.000000    3.999889    3.999964    ( 0.0000,  0.0000,  0.0000)


Forces in eV/Ang:
  0 O     0.00000    0.00000    0.11137
  1 H     0.00000    0.19798   -0.06320
  2 H     0.00000   -0.19798   -0.06320

Initializing position-dependent things.

Density initialized from wave functions
       .-------------------.  
      /|                   |  
     / |                   |  
    /  |                   |  
   /   |                   |  
  /    |                   |  
 *     |                   |  
 |     |                   |  
 |     |      O            |  
 |     |      H            |  
 |     |                   |  
 |     .-------------------.  
 |    /                   /   
 |   /                   /    
 |  /                   /     
 | /                   /      
 |/                   /       
 *-------------------*        

Positions:
   0 O      4.000000    4.763239    4.596313    ( 0.0000,  0.0000,  0.0000)
   1 H      4.000000    5.526603    3.999959    ( 0.0000,  0.0000,  0.0000)
   2 H      4.000000    3.999875    3.999959    ( 0.0000,  0.0000,  0.0000)


Forces in eV/Ang:
  0 O     0.00000    0.00000    0.10615
  1 H     0.00000    0.19604   -0.06232
  2 H     0.00000   -0.19604   -0.06232

Initializing position-dependent things.

Density initialized from wave functions
       .-------------------.  
      /|                   |  
     / |                   |  
    /  |                   |  
   /   |                   |  
  /    |                   |  
 *     |                   |  
 |     |                   |  
 |     |      O            |  
 |     |      H            |  
 |     |                   |  
 |     .-------------------.  
 |    /                   /   
 |   /                   /    
 |  /                   /     
 | /                   /      
 |/                   /       
 *-------------------*        

Positions:
   0 O      4.000000    4.763239    4.596313    ( 0.0000,  0.0000,  0.0000)
   1 H      4.000000    5.526603    3.999959    ( 0.0000,  0.0000,  0.0000)
   2 H      4.000000    3.999875    3.999959    ( 0.0000,  0.0000,  0.0000)


Forces in eV/Ang:
  0 O     0.00000    0.00000    0.10615
  1 H     0.00000    0.19604   -0.06232
  2 H     0.00000   -0.19604   -0.06232

Initializing position-dependent things.

Density initialized from wave functions
       .-------------------.  
      /|                   |  
     / |                   |  
    /  |                   |  
   /   |                   |  
  /    |                   |  
 *     |                   |  
 |     |                   |  
 |     |      O            |  
 |     |      H            |  
 |     |                   |  
 |     .-------------------.  
 |    /                   /   
 |   /                   /    
 |  /                   /     
 | /                   /      
 |/                   /       
 *-------------------*        

Positions:
   0 O      4.000000    4.763239    4.596314    ( 0.0000,  0.0000,  0.0000)
   1 H      4.000000    5.526617    3.999955    ( 0.0000,  0.0000,  0.0000)
   2 H      4.000000    3.999861    3.999955    ( 0.0000,  0.0000,  0.0000)


Forces in eV/Ang:
  0 O     0.00000    0.00000    0.10064
  1 H     0.00000    0.19398   -0.06140
  2 H     0.00000   -0.19398   -0.06140

Initializing position-dependent things.

Density initialized from wave functions
       .-------------------.  
      /|                   |  
     / |                   |  
    /  |                   |  
   /   |                   |  
  /    |                   |  
 *     |                   |  
 |     |                   |  
 |     |      O            |  
 |     |      H            |  
 |     |                   |  
 |     .-------------------.  
 |    /                   /   
 |   /                   /    
 |  /                   /     
 | /                   /      
 |/                   /       
 *-------------------*        

Positions:
   0 O      4.000000    4.763239    4.596314    ( 0.0000,  0.0000,  0.0000)
   1 H      4.000000    5.526617    3.999955    ( 0.0000,  0.0000,  0.0000)
   2 H      4.000000    3.999861    3.999955    ( 0.0000,  0.0000,  0.0000)


Forces in eV/Ang:
  0 O     0.00000    0.00000    0.11031
  1 H     0.00000    0.19683   -0.06245
  2 H     0.00000   -0.19683   -0.06245

Initializing position-dependent things.

Density initialized from wave functions
       .-------------------.  
      /|                   |  
     / |                   |  
    /  |                   |  
   /   |                   |  
  /    |                   |  
 *     |                   |  
 |     |                   |  
 |     |      O            |  
 |     |      H            |  
 |     |                   |  
 |     .-------------------.  
 |    /                   /   
 |   /                   /    
 |  /                   /     
 | /                   /      
 |/                   /       
 *-------------------*        

Positions:
   0 O      4.000000    4.763239    4.596314    ( 0.0000,  0.0000,  0.0000)
   1 H      4.000000    5.526632    3.999950    ( 0.0000,  0.0000,  0.0000)
   2 H      4.000000    3.999846    3.999950    ( 0.0000,  0.0000,  0.0000)


Forces in eV/Ang:
  0 O     0.00000    0.00000    0.10451
  1 H     0.00000    0.19467   -0.06148
  2 H     0.00000   -0.19467   -0.06148

Initializing position-dependent things.

Density initialized from wave functions
       .-------------------.  
      /|                   |  
     / |                   |  
    /  |                   |  
   /   |                   |  
  /    |                   |  
 *     |                   |  
 |     |                   |  
 |     |      O            |  
 |     |      H            |  
 |     |                   |  
 |     .-------------------.  
 |    /                   /   
 |   /                   /    
 |  /                   /     
 | /                   /      
 |/                   /       
 *-------------------*        

Positions:
   0 O      4.000000    4.763239    4.596314    ( 0.0000,  0.0000,  0.0000)
   1 H      4.000000    5.526632    3.999950    ( 0.0000,  0.0000,  0.0000)
   2 H      4.000000    3.999846    3.999950    ( 0.0000,  0.0000,  0.0000)


Forces in eV/Ang:
  0 O     0.00000    0.00000    0.10451
  1 H     0.00000    0.19467   -0.06148
  2 H     0.00000   -0.19467   -0.06148

Initializing position-dependent things.

Density initialized from wave functions
       .-------------------.  
      /|                   |  
     / |                   |  
    /  |                   |  
   /   |                   |  
  /    |                   |  
 *     |                   |  
 |     |                   |  
 |     |      O            |  
 |     |      H            |  
 |     |                   |  
 |     .-------------------.  
 |    /                   /   
 |   /                   /    
 |  /                   /     
 | /                   /      
 |/                   /       
 *-------------------*        

Positions:
   0 O      4.000000    4.763239    4.596315    ( 0.0000,  0.0000,  0.0000)
   1 H      4.000000    5.526647    3.999945    ( 0.0000,  0.0000,  0.0000)
   2 H      4.000000    3.999831    3.999945    ( 0.0000,  0.0000,  0.0000)


Forces in eV/Ang:
  0 O     0.00000    0.00000    0.09842
  1 H     0.00000    0.19240   -0.06046
  2 H     0.00000   -0.19240   -0.06046

Initializing position-dependent things.

Density initialized from wave functions
       .-------------------.  
      /|                   |  
     / |                   |  
    /  |                   |  
   /   |                   |  
  /    |                   |  
 *     |                   |  
 |     |                   |  
 |     |      O            |  
 |     |      H            |  
 |     |                   |  
 |     .-------------------.  
 |    /                   /   
 |   /                   /    
 |  /                   /     
 | /                   /      
 |/                   /       
 *-------------------*        

Positions:
   0 O      4.000000    4.763239    4.596315    ( 0.0000,  0.0000,  0.0000)
   1 H      4.000000    5.526647    3.999945    ( 0.0000,  0.0000,  0.0000)
   2 H      4.000000    3.999831    3.999945    ( 0.0000,  0.0000,  0.0000)


Forces in eV/Ang:
  0 O     0.00000    0.00000    0.10908
  1 H     0.00000    0.19553   -0.06162
  2 H     0.00000   -0.19553   -0.06162

Initializing position-dependent things.

Density initialized from wave functions
       .-------------------.  
      /|                   |  
     / |                   |  
    /  |                   |  
   /   |                   |  
  /    |                   |  
 *     |                   |  
 |     |                   |  
 |     |      O            |  
 |     |      H            |  
 |     |                   |  
 |     .-------------------.  
 |    /                   /   
 |   /                   /    
 |  /                   /     
 | /                   /      
 |/                   /       
 *-------------------*        

Positions:
   0 O      4.000000    4.763239    4.596316    ( 0.0000,  0.0000,  0.0000)
   1 H      4.000000    5.526664    3.999940    ( 0.0000,  0.0000,  0.0000)
   2 H      4.000000    3.999814    3.999940    ( 0.0000,  0.0000,  0.0000)


Forces in eV/Ang:
  0 O     0.00000    0.00000    0.10270
  1 H     0.00000    0.19316   -0.06055
  2 H     0.00000   -0.19316   -0.06055

Initializing position-dependent things.

Density initialized from wave functions
       .-------------------.  
      /|                   |  
     / |                   |  
    /  |                   |  
   /   |                   |  
  /    |                   |  
 *     |                   |  
 |     |                   |  
 |     |      O            |  
 |     |      H            |  
 |     |                   |  
 |     .-------------------.  
 |    /                   /   
 |   /                   /    
 |  /                   /     
 | /                   /      
 |/                   /       
 *-------------------*        

Positions:
   0 O      4.000000    4.763239    4.596316    ( 0.0000,  0.0000,  0.0000)
   1 H      4.000000    5.526664    3.999940    ( 0.0000,  0.0000,  0.0000)
   2 H      4.000000    3.999814    3.999940    ( 0.0000,  0.0000,  0.0000)


Forces in eV/Ang:
  0 O     0.00000    0.00000    0.10270
  1 H     0.00000    0.19316   -0.06055
  2 H     0.00000   -0.19316   -0.06055

Initializing position-dependent things.

Density initialized from wave functions
       .-------------------.  
      /|                   |  
     / |                   |  
    /  |                   |  
   /   |                   |  
  /    |                   |  
 *     |                   |  
 |     |                   |  
 |     |      O            |  
 |     |      H            |  
 |     |                   |  
 |     .-------------------.  
 |    /                   /   
 |   /                   /    
 |  /                   /     
 | /                   /      
 |/                   /       
 *-------------------*        

Positions:
   0 O      4.000000    4.763239    4.596316    ( 0.0000,  0.0000,  0.0000)
   1 H      4.000000    5.526681    3.999934    ( 0.0000,  0.0000,  0.0000)
   2 H      4.000000    3.999797    3.999934    ( 0.0000,  0.0000,  0.0000)


Forces in eV/Ang:
  0 O     0.00000    0.00000    0.09604
  1 H     0.00000    0.19067   -0.05944
  2 H     0.00000   -0.19067   -0.05944

Initializing position-dependent things.

Density initialized from wave functions
       .-------------------.  
      /|                   |  
     / |                   |  
    /  |                   |  
   /   |                   |  
  /    |                   |  
 *     |                   |  
 |     |                   |  
 |     |      O            |  
 |     |      H            |  
 |     |                   |  
 |     .-------------------.  
 |    /                   /   
 |   /                   /    
 |  /                   /     
 | /                   /      
 |/                   /       
 *-------------------*        

Positions:
   0 O      4.000000    4.763239    4.596316    ( 0.0000,  0.0000,  0.0000)
   1 H      4.000000    5.526681    3.999934    ( 0.0000,  0.0000,  0.0000)
   2 H      4.000000    3.999797    3.999934    ( 0.0000,  0.0000,  0.0000)


Forces in eV/Ang:
  0 O     0.00000    0.00000    0.10761
  1 H     0.00000    0.19412   -0.06072
  2 H     0.00000   -0.19412   -0.06072

Initializing position-dependent things.

Density initialized from wave functions
       .-------------------.  
      /|                   |  
     / |                   |  
    /  |                   |  
   /   |                   |  
  /    |                   |  
 *     |                   |  
 |     |                   |  
 |     |      O            |  
 |     |      H            |  
 |     |                   |  
 |     .-------------------.  
 |    /                   /   
 |   /                   /    
 |  /                   /     
 | /                   /      
 |/                   /       
 *-------------------*        

Positions:
   0 O      4.000000    4.763239    4.596317    ( 0.0000,  0.0000,  0.0000)
   1 H      4.000000    5.526699    3.999928    ( 0.0000,  0.0000,  0.0000)
   2 H      4.000000    3.999779    3.999928    ( 0.0000,  0.0000,  0.0000)


Forces in eV/Ang:
  0 O     0.00000    0.00000    0.10066
  1 H     0.00000    0.19153   -0.05956
  2 H     0.00000   -0.19153   -0.05956

Initializing position-dependent things.

Density initialized from wave functions
       .-------------------.  
      /|                   |  
     / |                   |  
    /  |                   |  
   /   |                   |  
  /    |                   |  
 *     |                   |  
 |     |                   |  
 |     |      O            |  
 |     |      H            |  
 |     |                   |  
 |     .-------------------.  
 |    /                   /   
 |   /                   /    
 |  /                   /     
 | /                   /      
 |/                   /       
 *-------------------*        

Positions:
   0 O      4.000000    4.763239    4.596317    ( 0.0000,  0.0000,  0.0000)
   1 H      4.000000    5.526699    3.999928    ( 0.0000,  0.0000,  0.0000)
   2 H      4.000000    3.999779    3.999928    ( 0.0000,  0.0000,  0.0000)


Forces in eV/Ang:
  0 O     0.00000    0.00000    0.10066
  1 H     0.00000    0.19153   -0.05956
  2 H     0.00000   -0.19153   -0.05956

Initializing position-dependent things.

Density initialized from wave functions
       .-------------------.  
      /|                   |  
     / |                   |  
    /  |                   |  
   /   |                   |  
  /    |                   |  
 *     |                   |  
 |     |                   |  
 |     |      O            |  
 |     |      H            |  
 |     |                   |  
 |     .-------------------.  
 |    /                   /   
 |   /                   /    
 |  /                   /     
 | /                   /      
 |/                   /       
 *-------------------*        

Positions:
   0 O      4.000000    4.763239    4.596317    ( 0.0000,  0.0000,  0.0000)
   1 H      4.000000    5.526717    3.999922    ( 0.0000,  0.0000,  0.0000)
   2 H      4.000000    3.999761    3.999922    ( 0.0000,  0.0000,  0.0000)


Forces in eV/Ang:
  0 O     0.00000    0.00000    0.09344
  1 H     0.00000    0.18883   -0.05835
  2 H     0.00000   -0.18883   -0.05835

Initializing position-dependent things.

Density initialized from wave functions
       .-------------------.  
      /|                   |  
     / |                   |  
    /  |                   |  
   /   |                   |  
  /    |                   |  
 *     |                   |  
 |     |                   |  
 |     |      O            |  
 |     |      H            |  
 |     |                   |  
 |     .-------------------.  
 |    /                   /   
 |   /                   /    
 |  /                   /     
 | /                   /      
 |/                   /       
 *-------------------*        

Positions:
   0 O      4.000000    4.763239    4.596317    ( 0.0000,  0.0000,  0.0000)
   1 H      4.000000    5.526717    3.999922    ( 0.0000,  0.0000,  0.0000)
   2 H      4.000000    3.999761    3.999922    ( 0.0000,  0.0000,  0.0000)


Forces in eV/Ang:
  0 O     0.00000    0.00000    0.10610
  1 H     0.00000    0.19257   -0.05973
  2 H     0.00000   -0.19257   -0.05973

Initializing position-dependent things.

Density initialized from wave functions
       .-------------------.  
      /|                   |  
     / |                   |  
    /  |                   |  
   /   |                   |  
  /    |                   |  
 *     |                   |  
 |     |                   |  
 |     |      O            |  
 |     |      H            |  
 |     |                   |  
 |     .-------------------.  
 |    /                   /   
 |   /                   /    
 |  /                   /     
 | /                   /      
 |/                   /       
 *-------------------*        

Positions:
   0 O      4.000000    4.763239    4.596318    ( 0.0000,  0.0000,  0.0000)
   1 H      4.000000    5.526737    3.999916    ( 0.0000,  0.0000,  0.0000)
   2 H      4.000000    3.999741    3.999916    ( 0.0000,  0.0000,  0.0000)


Forces in eV/Ang:
  0 O     0.00000    0.00000    0.09860
  1 H     0.00000    0.18977   -0.05848
  2 H     0.00000   -0.18977   -0.05848

Initializing position-dependent things.

Density initialized from wave functions
       .-------------------.  
      /|                   |  
     / |                   |  
    /  |                   |  
   /   |                   |  
  /    |                   |  
 *     |                   |  
 |     |                   |  
 |     |      O            |  
 |     |      H            |  
 |     |                   |  
 |     .-------------------.  
 |    /                   /   
 |   /                   /    
 |  /                   /     
 | /                   /      
 |/                   /       
 *-------------------*        

Positions:
   0 O      4.000000    4.763239    4.596318    ( 0.0000,  0.0000,  0.0000)
   1 H      4.000000    5.526737    3.999916    ( 0.0000,  0.0000,  0.0000)
   2 H      4.000000    3.999741    3.999916    ( 0.0000,  0.0000,  0.0000)


Forces in eV/Ang:
  0 O     0.00000    0.00000    0.09860
  1 H     0.00000    0.18977   -0.05848
  2 H     0.00000   -0.18977   -0.05848

Initializing position-dependent things.

Density initialized from wave functions
       .-------------------.  
      /|                   |  
     / |                   |  
    /  |                   |  
   /   |                   |  
  /    |                   |  
 *     |                   |  
 |     |                   |  
 |     |      O            |  
 |     |      H            |  
 |     |                   |  
 |     .-------------------.  
 |    /                   /   
 |   /                   /    
 |  /                   /     
 | /                   /      
 |/                   /       
 *-------------------*        

Positions:
   0 O      4.000000    4.763239    4.596319    ( 0.0000,  0.0000,  0.0000)
   1 H      4.000000    5.526757    3.999910    ( 0.0000,  0.0000,  0.0000)
   2 H      4.000000    3.999721    3.999910    ( 0.0000,  0.0000,  0.0000)


Forces in eV/Ang:
  0 O     0.00000    0.00000    0.09083
  1 H     0.00000    0.18686   -0.05717
  2 H     0.00000   -0.18686   -0.05717

Initializing position-dependent things.

Density initialized from wave functions
       .-------------------.  
      /|                   |  
     / |                   |  
    /  |                   |  
   /   |                   |  
  /    |                   |  
 *     |                   |  
 |     |                   |  
 |     |      O            |  
 |     |      H            |  
 |     |                   |  
 |     .-------------------.  
 |    /                   /   
 |   /                   /    
 |  /                   /     
 | /                   /      
 |/                   /       
 *-------------------*        

Positions:
   0 O      4.000000    4.763239    4.596319    ( 0.0000,  0.0000,  0.0000)
   1 H      4.000000    5.526757    3.999910    ( 0.0000,  0.0000,  0.0000)
   2 H      4.000000    3.999721    3.999910    ( 0.0000,  0.0000,  0.0000)


Forces in eV/Ang:
  0 O     0.00000    0.00000    0.10434
  1 H     0.00000    0.19088   -0.05867
  2 H     0.00000   -0.19088   -0.05867

Initializing position-dependent things.

Density initialized from wave functions
       .-------------------.  
      /|                   |  
     / |                   |  
    /  |                   |  
   /   |                   |  
  /    |                   |  
 *     |                   |  
 |     |                   |  
 |     |      O            |  
 |     |      H            |  
 |     |                   |  
 |     .-------------------.  
 |    /                   /   
 |   /                   /    
 |  /                   /     
 | /                   /      
 |/                   /       
 *-------------------*        

Positions:
   0 O      4.000000    4.763239    4.596319    ( 0.0000,  0.0000,  0.0000)
   1 H      4.000000    5.526778    3.999903    ( 0.0000,  0.0000,  0.0000)
   2 H      4.000000    3.999700    3.999903    ( 0.0000,  0.0000,  0.0000)


Forces in eV/Ang:
  0 O     0.00000    0.00000    0.09629
  1 H     0.00000    0.18787   -0.05732
  2 H     0.00000   -0.18787   -0.05732

Initializing position-dependent things.

Density initialized from wave functions
       .-------------------.  
      /|                   |  
     / |                   |  
    /  |                   |  
   /   |                   |  
  /    |                   |  
 *     |                   |  
 |     |                   |  
 |     |      O            |  
 |     |      H            |  
 |     |                   |  
 |     .-------------------.  
 |    /                   /   
 |   /                   /    
 |  /                   /     
 | /                   /      
 |/                   /       
 *-------------------*        

Positions:
   0 O      4.000000    4.763239    4.596319    ( 0.0000,  0.0000,  0.0000)
   1 H      4.000000    5.526778    3.999903    ( 0.0000,  0.0000,  0.0000)
   2 H      4.000000    3.999700    3.999903    ( 0.0000,  0.0000,  0.0000)


Forces in eV/Ang:
  0 O     0.00000    0.00000    0.09629
  1 H     0.00000    0.18787   -0.05732
  2 H     0.00000   -0.18787   -0.05732

Initializing position-dependent things.

Density initialized from wave functions
       .-------------------.  
      /|                   |  
     / |                   |  
    /  |                   |  
   /   |                   |  
  /    |                   |  
 *     |                   |  
 |     |                   |  
 |     |      O            |  
 |     |      H            |  
 |     |                   |  
 |     .-------------------.  
 |    /                   /   
 |   /                   /    
 |  /                   /     
 | /                   /      
 |/                   /       
 *-------------------*        

Positions:
   0 O      4.000000    4.763239    4.596320    ( 0.0000,  0.0000,  0.0000)
   1 H      4.000000    5.526799    3.999896    ( 0.0000,  0.0000,  0.0000)
   2 H      4.000000    3.999679    3.999896    ( 0.0000,  0.0000,  0.0000)


Forces in eV/Ang:
  0 O     0.00000    0.00000    0.08796
  1 H     0.00000    0.18476   -0.05593
  2 H     0.00000   -0.18476   -0.05593

Initializing position-dependent things.

Density initialized from wave functions
       .-------------------.  
      /|                   |  
     / |                   |  
    /  |                   |  
   /   |                   |  
  /    |                   |  
 *     |                   |  
 |     |                   |  
 |     |      O            |  
 |     |      H            |  
 |     |                   |  
 |     .-------------------.  
 |    /                   /   
 |   /                   /    
 |  /                   /     
 | /                   /      
 |/                   /       
 *-------------------*        

Positions:
   0 O      4.000000    4.763239    4.596320    ( 0.0000,  0.0000,  0.0000)
   1 H      4.000000    5.526799    3.999896    ( 0.0000,  0.0000,  0.0000)
   2 H      4.000000    3.999679    3.999896    ( 0.0000,  0.0000,  0.0000)


Forces in eV/Ang:
  0 O     0.00000    0.00000    0.10247
  1 H     0.00000    0.18907   -0.05753
  2 H     0.00000   -0.18907   -0.05753

Initializing position-dependent things.

Density initialized from wave functions
       .-------------------.  
      /|                   |  
     / |                   |  
    /  |                   |  
   /   |                   |  
  /    |                   |  
 *     |                   |  
 |     |                   |  
 |     |      O            |  
 |     |      H            |  
 |     |                   |  
 |     .-------------------.  
 |    /                   /   
 |   /                   /    
 |  /                   /     
 | /                   /      
 |/                   /       
 *-------------------*        

Positions:
   0 O      4.000000    4.763239    4.596321    ( 0.0000,  0.0000,  0.0000)
   1 H      4.000000    5.526821    3.999889    ( 0.0000,  0.0000,  0.0000)
   2 H      4.000000    3.999657    3.999889    ( 0.0000,  0.0000,  0.0000)


Forces in eV/Ang:
  0 O     0.00000    0.00000    0.09387
  1 H     0.00000    0.18586   -0.05609
  2 H     0.00000   -0.18586   -0.05609

Initializing position-dependent things.

Density initialized from wave functions
       .-------------------.  
      /|                   |  
     / |                   |  
    /  |                   |  
   /   |                   |  
  /    |                   |  
 *     |                   |  
 |     |                   |  
 |     |      O            |  
 |     |      H            |  
 |     |                   |  
 |     .-------------------.  
 |    /                   /   
 |   /                   /    
 |  /                   /     
 | /                   /      
 |/                   /       
 *-------------------*        

Positions:
   0 O      4.000000    4.763239    4.596321    ( 0.0000,  0.0000,  0.0000)
   1 H      4.000000    5.526821    3.999889    ( 0.0000,  0.0000,  0.0000)
   2 H      4.000000    3.999657    3.999889    ( 0.0000,  0.0000,  0.0000)


Forces in eV/Ang:
  0 O     0.00000    0.00000    0.09387
  1 H     0.00000    0.18586   -0.05609
  2 H     0.00000   -0.18586   -0.05609

Initializing position-dependent things.

Density initialized from wave functions
       .-------------------.  
      /|                   |  
     / |                   |  
    /  |                   |  
   /   |                   |  
  /    |                   |  
 *     |                   |  
 |     |                   |  
 |     |      O            |  
 |     |      H            |  
 |     |                   |  
 |     .-------------------.  
 |    /                   /   
 |   /                   /    
 |  /                   /     
 | /                   /      
 |/                   /       
 *-------------------*        

Positions:
   0 O      4.000000    4.763239    4.596322    ( 0.0000,  0.0000,  0.0000)
   1 H      4.000000    5.526844    3.999882    ( 0.0000,  0.0000,  0.0000)
   2 H      4.000000    3.999634    3.999882    ( 0.0000,  0.0000,  0.0000)


Forces in eV/Ang:
  0 O     0.00000    0.00000    0.08501
  1 H     0.00000    0.18254   -0.05460
  2 H     0.00000   -0.18254   -0.05460

Initializing position-dependent things.

Density initialized from wave functions
       .-------------------.  
      /|                   |  
     / |                   |  
    /  |                   |  
   /   |                   |  
  /    |                   |  
 *     |                   |  
 |     |                   |  
 |     |      O            |  
 |     |      H            |  
 |     |                   |  
 |     .-------------------.  
 |    /                   /   
 |   /                   /    
 |  /                   /     
 | /                   /      
 |/                   /       
 *-------------------*        

Positions:
   0 O      4.000000    4.763239    4.596322    ( 0.0000,  0.0000,  0.0000)
   1 H      4.000000    5.526844    3.999882    ( 0.0000,  0.0000,  0.0000)
   2 H      4.000000    3.999634    3.999882    ( 0.0000,  0.0000,  0.0000)


Forces in eV/Ang:
  0 O    -0.00000    0.00000    0.10045
  1 H     0.00000    0.18713   -0.05629
  2 H     0.00000   -0.18713   -0.05629

Initializing position-dependent things.

Density initialized from wave functions
       .-------------------.  
      /|                   |  
     / |                   |  
    /  |                   |  
   /   |                   |  
  /    |                   |  
 *     |                   |  
 |     |                   |  
 |     |      O            |  
 |     |      H            |  
 |     |                   |  
 |     .-------------------.  
 |    /                   /   
 |   /                   /    
 |  /                   /     
 | /                   /      
 |/                   /       
 *-------------------*        

Positions:
   0 O      4.000000    4.763239    4.596323    ( 0.0000,  0.0000,  0.0000)
   1 H      4.000000    5.526868    3.999874    ( 0.0000,  0.0000,  0.0000)
   2 H      4.000000    3.999610    3.999874    ( 0.0000,  0.0000,  0.0000)


Forces in eV/Ang:
  0 O    -0.00000    0.00000    0.09131
  1 H     0.00000    0.18371   -0.05477
  2 H     0.00000   -0.18371   -0.05477

Initializing position-dependent things.

Density initialized from wave functions
       .-------------------.  
      /|                   |  
     / |                   |  
    /  |                   |  
   /   |                   |  
  /    |                   |  
 *     |                   |  
 |     |                   |  
 |     |      O            |  
 |     |      H            |  
 |     |                   |  
 |     .-------------------.  
 |    /                   /   
 |   /                   /    
 |  /                   /     
 | /                   /      
 |/                   /       
 *-------------------*        

Positions:
   0 O      4.000000    4.763239    4.596323    ( 0.0000,  0.0000,  0.0000)
   1 H      4.000000    5.526868    3.999874    ( 0.0000,  0.0000,  0.0000)
   2 H      4.000000    3.999610    3.999874    ( 0.0000,  0.0000,  0.0000)


Forces in eV/Ang:
  0 O    -0.00000    0.00000    0.09131
  1 H     0.00000    0.18371   -0.05477
  2 H     0.00000   -0.18371   -0.05477

Initializing position-dependent things.

Density initialized from wave functions
       .-------------------.  
      /|                   |  
     / |                   |  
    /  |                   |  
   /   |                   |  
  /    |                   |  
 *     |                   |  
 |     |                   |  
 |     |      O            |  
 |     |      H            |  
 |     |                   |  
 |     .-------------------.  
 |    /                   /   
 |   /                   /    
 |  /                   /     
 | /                   /      
 |/                   /       
 *-------------------*        

Positions:
   0 O      4.000000    4.763239    4.596323    ( 0.0000,  0.0000,  0.0000)
   1 H      4.000000    5.526892    3.999867    ( 0.0000,  0.0000,  0.0000)
   2 H      4.000000    3.999586    3.999867    ( 0.0000,  0.0000,  0.0000)


Forces in eV/Ang:
  0 O    -0.00000    0.00000    0.08192
  1 H     0.00000    0.18019   -0.05319
  2 H     0.00000   -0.18019   -0.05319

Initializing position-dependent things.

Density initialized from wave functions
       .-------------------.  
      /|                   |  
     / |                   |  
    /  |                   |  
   /   |                   |  
  /    |                   |  
 *     |                   |  
 |     |                   |  
 |     |      O            |  
 |     |      H            |  
 |     |                   |  
 |     .-------------------.  
 |    /                   /   
 |   /                   /    
 |  /                   /     
 | /                   /      
 |/                   /       
 *-------------------*        

Positions:
   0 O      4.000000    4.763239    4.596323    ( 0.0000,  0.0000,  0.0000)
   1 H      4.000000    5.526892    3.999867    ( 0.0000,  0.0000,  0.0000)
   2 H      4.000000    3.999586    3.999867    ( 0.0000,  0.0000,  0.0000)


Forces in eV/Ang:
  0 O     0.00000   -0.00000    0.09824
  1 H     0.00000    0.18505   -0.05499
  2 H     0.00000   -0.18505   -0.05499

Initializing position-dependent things.

Density initialized from wave functions
       .-------------------.  
      /|                   |  
     / |                   |  
    /  |                   |  
   /   |                   |  
  /    |                   |  
 *     |                   |  
 |     |                   |  
 |     |      O            |  
 |     |      H            |  
 |     |                   |  
 |     .-------------------.  
 |    /                   /   
 |   /                   /    
 |  /                   /     
 | /                   /      
 |/                   /       
 *-------------------*        

Positions:
   0 O      4.000000    4.763239    4.596324    ( 0.0000,  0.0000,  0.0000)
   1 H      4.000000    5.526917    3.999859    ( 0.0000,  0.0000,  0.0000)
   2 H      4.000000    3.999561    3.999859    ( 0.0000,  0.0000,  0.0000)


Forces in eV/Ang:
  0 O     0.00000   -0.00000    0.08858
  1 H     0.00000    0.18143   -0.05337
  2 H     0.00000   -0.18143   -0.05337

Initializing position-dependent things.

Density initialized from wave functions
       .-------------------.  
      /|                   |  
     / |                   |  
    /  |                   |  
   /   |                   |  
  /    |                   |  
 *     |                   |  
 |     |                   |  
 |     |      O            |  
 |     |      H            |  
 |     |                   |  
 |     .-------------------.  
 |    /                   /   
 |   /                   /    
 |  /                   /     
 | /                   /      
 |/                   /       
 *-------------------*        

Positions:
   0 O      4.000000    4.763239    4.596324    ( 0.0000,  0.0000,  0.0000)
   1 H      4.000000    5.526917    3.999859    ( 0.0000,  0.0000,  0.0000)
   2 H      4.000000    3.999561    3.999859    ( 0.0000,  0.0000,  0.0000)


Forces in eV/Ang:
  0 O     0.00000   -0.00000    0.08858
  1 H     0.00000    0.18143   -0.05337
  2 H     0.00000   -0.18143   -0.05337

Initializing position-dependent things.

Density initialized from wave functions
       .-------------------.  
      /|                   |  
     / |                   |  
    /  |                   |  
   /   |                   |  
  /    |                   |  
 *     |                   |  
 |     |                   |  
 |     |      O            |  
 |     |      H            |  
 |     |                   |  
 |     .-------------------.  
 |    /                   /   
 |   /                   /    
 |  /                   /     
 | /                   /      
 |/                   /       
 *-------------------*        

Positions:
   0 O      4.000000    4.763239    4.596325    ( 0.0000,  0.0000,  0.0000)
   1 H      4.000000    5.526943    3.999850    ( 0.0000,  0.0000,  0.0000)
   2 H      4.000000    3.999535    3.999850    ( 0.0000,  0.0000,  0.0000)


Forces in eV/Ang:
  0 O     0.00000   -0.00000    0.07866
  1 H     0.00000    0.17771   -0.05171
  2 H     0.00000   -0.17771   -0.05171

Initializing position-dependent things.

Density initialized from wave functions
       .-------------------.  
      /|                   |  
     / |                   |  
    /  |                   |  
   /   |                   |  
  /    |                   |  
 *     |                   |  
 |     |                   |  
 |     |      O            |  
 |     |      H            |  
 |     |                   |  
 |     .-------------------.  
 |    /                   /   
 |   /                   /    
 |  /                   /     
 | /                   /      
 |/                   /       
 *-------------------*        

Positions:
   0 O      4.000000    4.763239    4.596325    ( 0.0000,  0.0000,  0.0000)
   1 H      4.000000    5.526943    3.999850    ( 0.0000,  0.0000,  0.0000)
   2 H      4.000000    3.999535    3.999850    ( 0.0000,  0.0000,  0.0000)


Forces in eV/Ang:
  0 O    -0.00000    0.00000    0.09588
  1 H    -0.00000    0.18285   -0.05361
  2 H    -0.00000   -0.18285   -0.05361

Initializing position-dependent things.

Density initialized from wave functions
       .-------------------.  
      /|                   |  
     / |                   |  
    /  |                   |  
   /   |                   |  
  /    |                   |  
 *     |                   |  
 |     |                   |  
 |     |      O            |  
 |     |      H            |  
 |     |                   |  
 |     .-------------------.  
 |    /                   /   
 |   /                   /    
 |  /                   /     
 | /                   /      
 |/                   /       
 *-------------------*        

Positions:
   0 O      4.000000    4.763239    4.596326    ( 0.0000,  0.0000,  0.0000)
   1 H      4.000000    5.526970    3.999842    ( 0.0000,  0.0000,  0.0000)
   2 H      4.000000    3.999508    3.999842    ( 0.0000,  0.0000,  0.0000)


Forces in eV/Ang:
  0 O    -0.00000    0.00000    0.08570
  1 H    -0.00000    0.17903   -0.05191
  2 H    -0.00000   -0.17903   -0.05191

Initializing position-dependent things.

Density initialized from wave functions
       .-------------------.  
      /|                   |  
     / |                   |  
    /  |                   |  
   /   |                   |  
  /    |                   |  
 *     |                   |  
 |     |                   |  
 |     |      O            |  
 |     |      H            |  
 |     |                   |  
 |     .-------------------.  
 |    /                   /   
 |   /                   /    
 |  /                   /     
 | /                   /      
 |/                   /       
 *-------------------*        

Positions:
   0 O      4.000000    4.763239    4.596326    ( 0.0000,  0.0000,  0.0000)
[...]
 | /                   /      
 |/                   /       
 *-------------------*        

Positions:
   0 O      4.000000    4.763239    4.594863    ( 0.0000,  0.0000,  0.0000)
   1 H      4.000000    5.529642    3.998047    ( 0.0000,  0.0000,  0.0000)
   2 H      4.000000    3.996836    3.998047    ( 0.0000,  0.0000,  0.0000)


Forces in eV/Ang:
  0 O     0.00000   -0.00000   -0.02451
  1 H    -0.00000    0.07198    0.00862
  2 H    -0.00000   -0.07197    0.00863

Initializing position-dependent things.

Density initialized from wave functions
       .-------------------.  
      /|                   |  
     / |                   |  
    /  |                   |  
   /   |                   |  
  /    |                   |  
 *     |                   |  
 |     |                   |  
 |     |      O            |  
 |     |      H            |  
 |     |                   |  
 |     .-------------------.  
 |    /                   /   
 |   /                   /    
 |  /                   /     
 | /                   /      
 |/                   /       
 *-------------------*        

Positions:
   0 O      4.000000    4.763239    4.594866    ( 0.0000,  0.0000,  0.0000)
   1 H      4.000000    5.529665    3.997998    ( 0.0000,  0.0000,  0.0000)
   2 H      4.000000    3.996813    3.997998    ( 0.0000,  0.0000,  0.0000)


Forces in eV/Ang:
  0 O     0.00000   -0.00000   -0.04169
  1 H    -0.00000    0.06712    0.01464
  2 H    -0.00000   -0.06711    0.01465

Initializing position-dependent things.

Density initialized from wave functions
       .-------------------.  
      /|                   |  
     / |                   |  
    /  |                   |  
   /   |                   |  
  /    |                   |  
 *     |                   |  
 |     |                   |  
 |     |      O            |  
 |     |      H            |  
 |     |                   |  
 |     .-------------------.  
 |    /                   /   
 |   /                   /    
 |  /                   /     
 | /                   /      
 |/                   /       
 *-------------------*        

Positions:
   0 O      4.000000    4.763239    4.594866    ( 0.0000,  0.0000,  0.0000)
   1 H      4.000000    5.529665    3.997998    ( 0.0000,  0.0000,  0.0000)
   2 H      4.000000    3.996813    3.997998    ( 0.0000,  0.0000,  0.0000)


Forces in eV/Ang:
  0 O     0.00000   -0.00001   -0.01344
  1 H    -0.00000    0.07311    0.00576
  2 H    -0.00000   -0.07310    0.00578

Initializing position-dependent things.

Density initialized from wave functions
       .-------------------.  
      /|                   |  
     / |                   |  
    /  |                   |  
   /   |                   |  
  /    |                   |  
 *     |                   |  
 |     |                   |  
 |     |      O            |  
 |     |      H            |  
 |     |                   |  
 |     .-------------------.  
 |    /                   /   
 |   /                   /    
 |  /                   /     
 | /                   /      
 |/                   /       
 *-------------------*        

Positions:
   0 O      4.000000    4.763239    4.594869    ( 0.0000,  0.0000,  0.0000)
   1 H      4.000000    5.529689    3.997950    ( 0.0000,  0.0000,  0.0000)
   2 H      4.000000    3.996789    3.997950    ( 0.0000,  0.0000,  0.0000)


Forces in eV/Ang:
  0 O     0.00000   -0.00001   -0.03066
  1 H    -0.00000    0.06822    0.01178
  2 H    -0.00000   -0.06821    0.01180

Initializing position-dependent things.

Density initialized from wave functions
       .-------------------.  
      /|                   |  
     / |                   |  
    /  |                   |  
   /   |                   |  
  /    |                   |  
 *     |                   |  
 |     |                   |  
 |     |      O            |  
 |     |      H            |  
 |     |                   |  
 |     .-------------------.  
 |    /                   /   
 |   /                   /    
 |  /                   /     
 | /                   /      
 |/                   /       
 *-------------------*        

Positions:
   0 O      4.000000    4.763239    4.594869    ( 0.0000,  0.0000,  0.0000)
   1 H      4.000000    5.529689    3.997950    ( 0.0000,  0.0000,  0.0000)
   2 H      4.000000    3.996789    3.997950    ( 0.0000,  0.0000,  0.0000)


Forces in eV/Ang:
  0 O     0.00000   -0.00001   -0.03066
  1 H    -0.00000    0.06822    0.01178
  2 H    -0.00000   -0.06821    0.01180

Initializing position-dependent things.

Density initialized from wave functions
       .-------------------.  
      /|                   |  
     / |                   |  
    /  |                   |  
   /   |                   |  
  /    |                   |  
 *     |                   |  
 |     |                   |  
 |     |      O            |  
 |     |      H            |  
 |     |                   |  
 |     .-------------------.  
 |    /                   /   
 |   /                   /    
 |  /                   /     
 | /                   /      
 |/                   /       
 *-------------------*        

Positions:
   0 O      4.000000    4.763239    4.594872    ( 0.0000,  0.0000,  0.0000)
   1 H      4.000000    5.529713    3.997901    ( 0.0000,  0.0000,  0.0000)
   2 H      4.000000    3.996765    3.997901    ( 0.0000,  0.0000,  0.0000)


Forces in eV/Ang:
  0 O     0.00000   -0.00001   -0.04793
  1 H    -0.00000    0.06330    0.01781
  2 H    -0.00000   -0.06329    0.01782

Initializing position-dependent things.

Density initialized from wave functions
       .-------------------.  
      /|                   |  
     / |                   |  
    /  |                   |  
   /   |                   |  
  /    |                   |  
 *     |                   |  
 |     |                   |  
 |     |      O            |  
 |     |      H            |  
 |     |                   |  
 |     .-------------------.  
 |    /                   /   
 |   /                   /    
 |  /                   /     
 | /                   /      
 |/                   /       
 *-------------------*        

Positions:
   0 O      4.000000    4.763239    4.594872    ( 0.0000,  0.0000,  0.0000)
   1 H      4.000000    5.529713    3.997901    ( 0.0000,  0.0000,  0.0000)
   2 H      4.000000    3.996765    3.997901    ( 0.0000,  0.0000,  0.0000)


Forces in eV/Ang:
  0 O    -0.00000   -0.00002   -0.01951
  1 H    -0.00000    0.06939    0.00894
  2 H    -0.00000   -0.06938    0.00896

Initializing position-dependent things.

Density initialized from wave functions
       .-------------------.  
      /|                   |  
     / |                   |  
    /  |                   |  
   /   |                   |  
  /    |                   |  
 *     |                   |  
 |     |                   |  
 |     |      O            |  
 |     |      H            |  
 |     |                   |  
 |     .-------------------.  
 |    /                   /   
 |   /                   /    
 |  /                   /     
 | /                   /      
 |/                   /       
 *-------------------*        

Positions:
   0 O      4.000000    4.763239    4.594875    ( 0.0000,  0.0000,  0.0000)
   1 H      4.000000    5.529738    3.997853    ( 0.0000,  0.0000,  0.0000)
   2 H      4.000000    3.996740    3.997853    ( 0.0000,  0.0000,  0.0000)


Forces in eV/Ang:
  0 O    -0.00000   -0.00002   -0.03682
  1 H    -0.00000    0.06444    0.01496
  2 H    -0.00000   -0.06443    0.01498

Initializing position-dependent things.

Density initialized from wave functions
       .-------------------.  
      /|                   |  
     / |                   |  
    /  |                   |  
   /   |                   |  
  /    |                   |  
 *     |                   |  
 |     |                   |  
 |     |      O            |  
 |     |      H            |  
 |     |                   |  
 |     .-------------------.  
 |    /                   /   
 |   /                   /    
 |  /                   /     
 | /                   /      
 |/                   /       
 *-------------------*        

Positions:
   0 O      4.000000    4.763239    4.594875    ( 0.0000,  0.0000,  0.0000)
   1 H      4.000000    5.529738    3.997853    ( 0.0000,  0.0000,  0.0000)
   2 H      4.000000    3.996740    3.997853    ( 0.0000,  0.0000,  0.0000)


Forces in eV/Ang:
  0 O    -0.00000   -0.00002   -0.03682
  1 H    -0.00000    0.06444    0.01496
  2 H    -0.00000   -0.06443    0.01498

Initializing position-dependent things.

Density initialized from wave functions
       .-------------------.  
      /|                   |  
     / |                   |  
    /  |                   |  
   /   |                   |  
  /    |                   |  
 *     |                   |  
 |     |                   |  
 |     |      O            |  
 |     |      H            |  
 |     |                   |  
 |     .-------------------.  
 |    /                   /   
 |   /                   /    
 |  /                   /     
 | /                   /      
 |/                   /       
 *-------------------*        

Positions:
   0 O      4.000000    4.763239    4.594878    ( 0.0000,  0.0000,  0.0000)
   1 H      4.000000    5.529762    3.997804    ( 0.0000,  0.0000,  0.0000)
   2 H      4.000000    3.996716    3.997804    ( 0.0000,  0.0000,  0.0000)


Forces in eV/Ang:
  0 O    -0.00000   -0.00002   -0.05416
  1 H    -0.00000    0.05946    0.02099
  2 H    -0.00000   -0.05945    0.02100

Initializing position-dependent things.

Density initialized from wave functions
       .-------------------.  
      /|                   |  
     / |                   |  
    /  |                   |  
   /   |                   |  
  /    |                   |  
 *     |                   |  
 |     |                   |  
 |     |      O            |  
 |     |      H            |  
 |     |                   |  
 |     .-------------------.  
 |    /                   /   
 |   /                   /    
 |  /                   /     
 | /                   /      
 |/                   /       
 *-------------------*        

Positions:
   0 O      4.000000    4.763239    4.594878    ( 0.0000,  0.0000,  0.0000)
   1 H      4.000000    5.529762    3.997804    ( 0.0000,  0.0000,  0.0000)
   2 H      4.000000    3.996716    3.997804    ( 0.0000,  0.0000,  0.0000)


Forces in eV/Ang:
  0 O    -0.00000   -0.00002   -0.02563
  1 H    -0.00000    0.06562    0.01213
  2 H    -0.00000   -0.06561    0.01215

Initializing position-dependent things.

Density initialized from wave functions
       .-------------------.  
      /|                   |  
     / |                   |  
    /  |                   |  
   /   |                   |  
  /    |                   |  
 *     |                   |  
 |     |                   |  
 |     |      O            |  
 |     |      H            |  
 |     |                   |  
 |     .-------------------.  
 |    /                   /   
 |   /                   /    
 |  /                   /     
 | /                   /      
 |/                   /       
 *-------------------*        

Positions:
   0 O      4.000000    4.763239    4.594881    ( 0.0000,  0.0000,  0.0000)
   1 H      4.000000    5.529787    3.997756    ( 0.0000,  0.0000,  0.0000)
   2 H      4.000000    3.996691    3.997756    ( 0.0000,  0.0000,  0.0000)


Forces in eV/Ang:
  0 O    -0.00000   -0.00002   -0.04300
  1 H    -0.00000    0.06062    0.01816
  2 H    -0.00000   -0.06061    0.01817

Initializing position-dependent things.

Density initialized from wave functions
       .-------------------.  
      /|                   |  
     / |                   |  
    /  |                   |  
   /   |                   |  
  /    |                   |  
 *     |                   |  
 |     |                   |  
 |     |      O            |  
 |     |      H            |  
 |     |                   |  
 |     .-------------------.  
 |    /                   /   
 |   /                   /    
 |  /                   /     
 | /                   /      
 |/                   /       
 *-------------------*        

Positions:
   0 O      4.000000    4.763239    4.594881    ( 0.0000,  0.0000,  0.0000)
   1 H      4.000000    5.529787    3.997756    ( 0.0000,  0.0000,  0.0000)
   2 H      4.000000    3.996691    3.997756    ( 0.0000,  0.0000,  0.0000)


Forces in eV/Ang:
  0 O    -0.00000   -0.00002   -0.04300
  1 H    -0.00000    0.06062    0.01816
  2 H    -0.00000   -0.06061    0.01817

Initializing position-dependent things.

Density initialized from wave functions
       .-------------------.  
      /|                   |  
     / |                   |  
    /  |                   |  
   /   |                   |  
  /    |                   |  
 *     |                   |  
 |     |                   |  
 |     |      O            |  
 |     |      H            |  
 |     |                   |  
 |     .-------------------.  
 |    /                   /   
 |   /                   /    
 |  /                   /     
 | /                   /      
 |/                   /       
 *-------------------*        

Positions:
   0 O      4.000000    4.763239    4.594884    ( 0.0000,  0.0000,  0.0000)
   1 H      4.000000    5.529812    3.997708    ( 0.0000,  0.0000,  0.0000)
   2 H      4.000000    3.996666    3.997708    ( 0.0000,  0.0000,  0.0000)


Forces in eV/Ang:
  0 O    -0.00000   -0.00002   -0.06040
  1 H    -0.00000    0.05559    0.02418
  2 H    -0.00000   -0.05558    0.02419

Initializing position-dependent things.

Density initialized from wave functions
       .-------------------.  
      /|                   |  
     / |                   |  
    /  |                   |  
   /   |                   |  
  /    |                   |  
 *     |                   |  
 |     |                   |  
 |     |      O            |  
 |     |      H            |  
 |     |                   |  
 |     .-------------------.  
 |    /                   /   
 |   /                   /    
 |  /                   /     
 | /                   /      
 |/                   /       
 *-------------------*        

Positions:
   0 O      4.000000    4.763239    4.594884    ( 0.0000,  0.0000,  0.0000)
   1 H      4.000000    5.529812    3.997708    ( 0.0000,  0.0000,  0.0000)
   2 H      4.000000    3.996666    3.997708    ( 0.0000,  0.0000,  0.0000)


Forces in eV/Ang:
  0 O    -0.00000   -0.00001   -0.03180
  1 H     0.00000    0.06182    0.01534
  2 H     0.00000   -0.06182    0.01535

Initializing position-dependent things.

Density initialized from wave functions
       .-------------------.  
      /|                   |  
     / |                   |  
    /  |                   |  
   /   |                   |  
  /    |                   |  
 *     |                   |  
 |     |                   |  
 |     |      O            |  
 |     |      H            |  
 |     |                   |  
 |     .-------------------.  
 |    /                   /   
 |   /                   /    
 |  /                   /     
 | /                   /      
 |/                   /       
 *-------------------*        

Positions:
   0 O      4.000000    4.763239    4.594887    ( 0.0000,  0.0000,  0.0000)
   1 H      4.000000    5.529838    3.997659    ( 0.0000,  0.0000,  0.0000)
   2 H      4.000000    3.996640    3.997659    ( 0.0000,  0.0000,  0.0000)


Forces in eV/Ang:
  0 O    -0.00000   -0.00001   -0.04923
  1 H     0.00000    0.05677    0.02136
  2 H     0.00000   -0.05676    0.02136

Timing:                                      incl.     excl.
-------------------------------------------------------------------
Apply approximate inverse overlap:           0.309     0.309   0.0% |
Apply exact inverse overlap:                62.634    59.905   1.1% |
 Apply approximate inverse overlap:          2.730     2.730   0.0% |
Apply time-dependent operators:             18.734    18.734   0.3% |
BiCGStab:                                 3794.348  1659.588  30.0% |-----------|
 Apply time-dependent operators:          2115.748  2115.748  38.3% |--------------|
 Solve TDDFT preconditioner:                19.013    19.013   0.3% |
Density:                                    23.295     0.280   0.0% |
 Atomic density matrices:                   10.669    10.669   0.2% |
 Mix:                                        9.051     9.051   0.2% |
 Multipole moments:                          1.920     1.920   0.0% |
 Pseudo density:                             1.376     1.186   0.0% |
  Symmetrize density:                        0.190     0.190   0.0% |
Density initialized from wave functions:    23.533    23.314   0.4% |
 Symmetrize density:                         0.219     0.219   0.0% |
Hamiltonian:                              1066.321     2.481   0.0% |
 Atomic:                                     9.167     8.999   0.2% |
  XC Correction:                             0.168     0.168   0.0% |
 Calculate atomic Hamiltonians:              5.374     5.374   0.1% |
 Communicate:                              301.287   301.287   5.5% |-|
 Hartree integrate/restrict:                19.274    19.274   0.3% |
 Poisson:                                  548.807    10.173   0.2% |
  Communicate bwd 0:                       117.853   117.853   2.1% ||
  Communicate bwd 1:                       124.164   124.164   2.2% ||
  Communicate fwd 0:                       113.103   113.103   2.0% ||
  Communicate fwd 1:                       135.086   135.086   2.4% ||
  fft:                                      15.874    15.874   0.3% |
  fft2:                                     32.553    32.553   0.6% |
 XC 3D grid:                               176.261   176.261   3.2% ||
 vbar:                                       3.669     3.669   0.1% |
Redistribute:                                6.869     6.869   0.1% |
Set symmetry:                                0.008     0.008   0.0% |
Update time-dependent operators:           273.492     0.436   0.0% |
 Density:                                   10.704     0.118   0.0% |
  Atomic density matrices:                   4.723     4.723   0.1% |
  Mix:                                       4.309     4.309   0.1% |
  Multipole moments:                         0.891     0.891   0.0% |
  Pseudo density:                            0.662     0.577   0.0% |
   Symmetrize density:                       0.085     0.085   0.0% |
 Hamiltonian:                              262.352     0.607   0.0% |
  Atomic:                                    2.284     2.242   0.0% |
   XC Correction:                            0.042     0.042   0.0% |
  Calculate atomic Hamiltonians:             1.317     1.317   0.0% |
  Communicate:                              74.268    74.268   1.3% ||
  Hartree integrate/restrict:                4.708     4.708   0.1% |
  Poisson:                                 134.771     2.476   0.0% |
   Communicate bwd 0:                       29.021    29.021   0.5% |
   Communicate bwd 1:                       30.555    30.555   0.6% |
   Communicate fwd 0:                       27.546    27.546   0.5% |
   Communicate fwd 1:                       33.232    33.232   0.6% |
   fft:                                      3.917     3.917   0.1% |
   fft2:                                     8.024     8.024   0.1% |
  XC 3D grid:                               43.503    43.503   0.8% |
  vbar:                                      0.895     0.895   0.0% |
Other:                                     257.666   257.666   4.7% |-|
-------------------------------------------------------------------
Total:                                              5527.210 100.0%

Memory usage: 124.41 MiB
Date: Sun Dec  8 23:16:38 2019
