
  ___ ___ ___ _ _ _  
 |   |   |_  | | | | 
 | | | | | . | | | | 
 |__ |  _|___|_____|  19.8.1
 |___|_|             

User:   sjliang@nid02305
Date:   Sun Dec  8 21:39:58 2019
Arch:   x86_64
Pid:    187391
Python: 3.6.9
gpaw:   /global/homes/s/sjliang/.conda/envs/gpaw/lib/python3.6/site-packages/gpaw
_gpaw:  /global/homes/s/sjliang/.conda/envs/gpaw/bin/gpaw-python (54c2d0d863)
ase:    /global/homes/s/sjliang/.conda/envs/gpaw/lib/python3.6/site-packages/ase (version 3.18.1)
numpy:  /global/homes/s/sjliang/.conda/envs/gpaw/lib/python3.6/site-packages/numpy (version 1.17.4)
scipy:  /global/homes/s/sjliang/.conda/envs/gpaw/lib/python3.6/site-packages/scipy (version 1.3.1)
libxc:  4.2.3
units:  Angstrom and eV
cores:  16

Input parameters:
  basis: dzp
  h: 0.2
  nbands: 4

System changes: positions, numbers, cell, pbc, initial_charges, initial_magmoms 

Initialize ...

O-setup:
  name: Oxygen
  id: 9b9d51c344dea68c822856295a461509
  Z: 8
  valence: 6
  core: 2
  charge: 0.0
  file: /global/homes/s/sjliang/gpaw/gpaw-setups-0.9.20000/O.LDA
  compensation charges: gauss, rc=0.21, lmax=2
  cutoffs: 1.17(filt), 0.83(core),
  valence states:
                energy  radius
    2s(2.00)   -23.752   0.688
    2p(4.00)    -9.195   0.598
    *s           3.459   0.688
    *p          18.016   0.598
    *d           0.000   0.619

  LCAO basis set for O:
    Name: dzp
    File: /global/homes/s/sjliang/gpaw/gpaw-setups-0.9.20000/O.dzp.basis
    Number of radial functions: 5
    Number of spherical harmonics: 13
      l=0, rc=4.3438 Bohr: 2s-sz confined orbital
      l=1, rc=5.3906 Bohr: 2p-sz confined orbital
      l=0, rc=2.2969 Bohr: 2s-dz split-valence wave
      l=1, rc=2.8906 Bohr: 2p-dz split-valence wave
      l=2, rc=5.3906 Bohr: d-type Gaussian polarization

H-setup:
  name: Hydrogen
  id: 4766778ce56282eaa64abeb28b7c1de3
  Z: 1
  valence: 1
  core: 0
  charge: 0.0
  file: /global/homes/s/sjliang/gpaw/gpaw-setups-0.9.20000/H.LDA
  compensation charges: gauss, rc=0.15, lmax=2
  cutoffs: 0.85(filt), 0.53(core),
  valence states:
                energy  radius
    1s(1.00)    -6.353   0.476
    *s          20.858   0.476
    *p           0.000   0.476

  LCAO basis set for H:
    Name: dzp
    File: /global/homes/s/sjliang/gpaw/gpaw-setups-0.9.20000/H.dzp.basis
    Number of radial functions: 3
    Number of spherical harmonics: 5
      l=0, rc=6.4219 Bohr: 1s-sz confined orbital
      l=0, rc=3.6094 Bohr: 1s-dz split-valence wave
      l=1, rc=6.4219 Bohr: p-type Gaussian polarization

Reference energy: -2052.165985

Spin-paired calculation

Occupation numbers:
  Fermi-Dirac: width=0.0000 eV

Convergence criteria:
  Maximum total energy change: 0.0005 eV / electron
  Maximum integral of absolute density change: 0.0001 electrons
  Maximum integral of absolute eigenstate change: 4e-08 eV^2
  Maximum number of iterations: 333

Symmetries present (total): 1

  ( 1  0  0)
  ( 0  1  0)
  ( 0  0  1)

1 k-point (Gamma)
1 k-point in the irreducible part of the Brillouin zone
       k-points in crystal coordinates                weights
   0:     0.00000000    0.00000000    0.00000000          1/1

Wave functions: Uniform real-space grid
  Kinetic energy operator: 6*3+1=19 point O(h^6) finite-difference Laplacian
  ScaLapack parameters: grid=1x1, blocksize=None
  Wavefunction extrapolation:
    Improved wavefunction reuse through dual PAW basis 

Eigensolver
   Davidson(niter=2, smin=None, normalize=True) 

Densities:
  Coarse grid: 40*48*44 grid
  Fine grid: 80*96*88 grid
  Total Charge: 0.000000 

Density mixing:
  Method: separate
  Backend: pulay
  Linear mixing parameter: 0.25
  Mixing with 3 old densities
  No damping of long wave oscillations 

Hamiltonian:
  XC and Coulomb potentials evaluated on a 80*96*88 grid
  Using the LDA Exchange-Correlation functional
  Interpolation: tri-quintic (5. degree polynomial)
  Poisson solver: FastPoissonSolver using
    6*3+1=19 point O(h^6) finite-difference Laplacian stencil;
    FFT axes: [];
    FST axes: [0, 2, 1].
 

Memory estimate:
  Process memory now: 118.43 MiB
  Calculator: 2.30 MiB
    Density: 1.23 MiB
      Arrays: 0.95 MiB
      Localized functions: 0.08 MiB
      Mixer: 0.20 MiB
    Hamiltonian: 0.63 MiB
      Arrays: 0.62 MiB
      XC: 0.00 MiB
      Poisson: 0.00 MiB
      vbar: 0.01 MiB
    Wavefunctions: 0.44 MiB
      Arrays psit_nG: 0.13 MiB
      Eigensolver: 0.30 MiB
      Projections: 0.00 MiB
      Projectors: 0.01 MiB

Total number of cores used: 16
Domain decomposition: 2 x 4 x 2

Number of atoms: 3
Number of atomic orbitals: 23
Number of bands in calculation: 4
Bands to converge: occupied states only
Number of valence electrons: 8

... initialized

Initializing position-dependent things.

Density initialized from atomic densities
Creating initial wave functions:
  4 bands from LCAO basis set

       .-------------------.  
      /|                   |  
     / |                   |  
    /  |                   |  
   /   |                   |  
  /    |                   |  
 *     |                   |  
 |     |                   |  
 |     |      O            |  
 |     |      H            |  
 |     |                   |  
 |     .-------------------.  
 |    /                   /   
 |   /                   /    
 |  /                   /     
 | /                   /      
 |/                   /       
 *-------------------*        

Positions:
   0 O      4.000000    4.763239    4.596309    ( 0.0000,  0.0000,  0.0000)
   1 H      4.000000    5.526478    4.000000    ( 0.0000,  0.0000,  0.0000)
   2 H      4.000000    4.000000    4.000000    ( 0.0000,  0.0000,  0.0000)

Unit cell:
           periodic     x           y           z      points  spacing
  1. axis:    no     8.000000    0.000000    0.000000    40     0.2000
  2. axis:    no     0.000000    9.526478    0.000000    48     0.1985
  3. axis:    no     0.000000    0.000000    8.596309    44     0.1954

  Lengths:   8.000000   9.526478   8.596309
  Angles:   90.000000  90.000000  90.000000

Effective grid spacing dv^(1/3) = 0.1979

                     log10-error:    total        iterations:
           time      wfs    density  energy       fermi  poisson
iter:   1  21:40:17  +0.51   +inf   -16.255582    0      1      
iter:   2  21:40:17  +0.56  -0.81   -15.364152    0      1      
iter:   3  21:40:17  +0.57  -1.00   -15.268589    0      1      
iter:   4  21:40:18  -0.45  -1.20   -15.279047    0      1      
iter:   5  21:40:18  -0.68  -1.68   -15.246454    0      1      
iter:   6  21:40:18  -0.68  -2.19   -15.248674    0      1      
iter:   7  21:40:19  -2.11  -2.24   -15.247112    0      1      
iter:   8  21:40:19  -2.71  -2.40   -15.247419    0      1      
iter:   9  21:40:19  -2.35  -2.35   -15.246678    0      1      
iter:  10  21:40:20  -3.34  -2.79   -15.246609    0      1      
iter:  11  21:40:20  -2.69  -2.89   -15.246664    0      1      
iter:  12  21:40:20  -3.30  -2.91   -15.246692    0      1      
iter:  13  21:40:21  -3.20  -2.80   -15.246558    0      1      
iter:  14  21:40:21  -3.14  -3.30   -15.246559    0      1      
iter:  15  21:40:21  -4.48  -3.50   -15.246555    0      1      
iter:  16  21:40:22  -4.97  -3.91   -15.246556    0      1      
iter:  17  21:40:22  -5.07  -3.91   -15.246555    0      1      
iter:  18  21:40:22  -5.92  -4.26   -15.246555    0      1      
iter:  19  21:40:23  -5.88  -4.59   -15.246555    0      1      
iter:  20  21:40:23  -6.46  -4.66   -15.246555    0      1      
iter:  21  21:40:23  -7.35  -4.88   -15.246555    0      1      
iter:  22  21:40:24  -7.12  -5.18   -15.246555    0      1      
iter:  23  21:40:24  -8.01  -5.38   -15.246555    0      1      

Converged after 23 iterations.

Dipole moment: (0.000000, 0.000000, -0.393742) |e|*Ang

Energy contributions relative to reference atoms: (reference = -2052.165985)

Kinetic:        +17.949153
Potential:      -20.187606
External:        +0.000000
XC:             -13.635993
Entropy (-ST):   +0.000000
Local:           +0.627891
--------------------------
Free energy:    -15.246555
Extrapolated:   -15.246555

 Band  Eigenvalues  Occupancy
    0    -25.08939    2.00000
    1    -13.15331    2.00000
    2     -9.42449    2.00000
    3     -7.39901    2.00000

Writing to H2O_laser_gs.gpw (mode='all')

Timing:                              incl.     excl.
-----------------------------------------------------------
Hamiltonian:                         0.261     0.001   0.0% |
 Atomic:                             0.002     0.002   0.0% |
  XC Correction:                     0.000     0.000   0.0% |
 Calculate atomic Hamiltonians:      0.001     0.001   0.0% |
 Communicate:                        0.074     0.074   0.3% |
 Hartree integrate/restrict:         0.005     0.005   0.0% |
 Initialize Hamiltonian:             0.000     0.000   0.0% |
 Poisson:                            0.134     0.002   0.0% |
  Communicate bwd 0:                 0.029     0.029   0.1% |
  Communicate bwd 1:                 0.030     0.030   0.1% |
  Communicate fwd 0:                 0.028     0.028   0.1% |
  Communicate fwd 1:                 0.032     0.032   0.1% |
  fft:                               0.004     0.004   0.0% |
  fft2:                              0.008     0.008   0.0% |
 XC 3D grid:                         0.043     0.043   0.2% |
 vbar:                               0.001     0.001   0.0% |
LCAO initialization:                 1.093     1.022   3.8% |-|
 LCAO eigensolver:                   0.032     0.001   0.0% |
  Calculate projections:             0.000     0.000   0.0% |
  DenseAtomicCorrection:             0.000     0.000   0.0% |
  Distribute overlap matrix:         0.005     0.005   0.0% |
  Orbital Layouts:                   0.025     0.025   0.1% |
  Potential matrix:                  0.001     0.001   0.0% |
 LCAO to grid:                       0.001     0.001   0.0% |
 Set positions (LCAO WFS):           0.038     0.021   0.1% |
  Basic WFS set positions:           0.002     0.002   0.0% |
  Basis functions set positions:     0.000     0.000   0.0% |
  P tci:                             0.002     0.002   0.0% |
  ST tci:                            0.008     0.008   0.0% |
  mktci:                             0.005     0.005   0.0% |
SCF-cycle:                           7.414     0.067   0.3% |
 Davidson:                           1.412     0.557   2.1% ||
  Apply hamiltonian:                 0.082     0.082   0.3% |
  Subspace diag:                     0.203     0.013   0.0% |
   calc_h_matrix:                    0.117     0.038   0.1% |
    Apply hamiltonian:               0.079     0.079   0.3% |
   diagonalize:                      0.047     0.047   0.2% |
   rotate_psi:                       0.026     0.026   0.1% |
  calc. matrices:                    0.476     0.286   1.1% |
   Apply hamiltonian:                0.190     0.190   0.7% |
  diagonalize:                       0.047     0.047   0.2% |
  rotate_psi:                        0.047     0.047   0.2% |
 Density:                            0.293     0.003   0.0% |
  Atomic density matrices:           0.107     0.107   0.4% |
  Mix:                               0.143     0.143   0.5% |
  Multipole moments:                 0.023     0.023   0.1% |
  Pseudo density:                    0.018     0.016   0.1% |
   Symmetrize density:               0.002     0.002   0.0% |
 Hamiltonian:                        5.634     0.013   0.0% |
  Atomic:                            0.048     0.047   0.2% |
   XC Correction:                    0.001     0.001   0.0% |
  Calculate atomic Hamiltonians:     0.028     0.028   0.1% |
  Communicate:                       1.609     1.609   6.0% |-|
  Hartree integrate/restrict:        0.074     0.074   0.3% |
  Poisson:                           2.884     0.056   0.2% |
   Communicate bwd 0:                0.636     0.636   2.4% ||
   Communicate bwd 1:                0.638     0.638   2.4% ||
   Communicate fwd 0:                0.619     0.619   2.3% ||
   Communicate fwd 1:                0.674     0.674   2.5% ||
   fft:                              0.085     0.085   0.3% |
   fft2:                             0.176     0.176   0.7% |
  XC 3D grid:                        0.957     0.957   3.6% ||
  vbar:                              0.020     0.020   0.1% |
 Orthonormalize:                     0.007     0.001   0.0% |
  calc_s_matrix:                     0.002     0.002   0.0% |
  inverse-cholesky:                  0.004     0.004   0.0% |
  projections:                       0.000     0.000   0.0% |
  rotate_psi_s:                      0.001     0.001   0.0% |
Set symmetry:                        0.008     0.008   0.0% |
Other:                              17.879    17.879  67.1% |--------------------------|
-----------------------------------------------------------
Total:                                        26.656 100.0%

Memory usage: 147.03 MiB
Date: Sun Dec  8 21:40:24 2019
