
  ___ ___ ___ _ _ _  
 |   |   |_  | | | | 
 | | | | | . | | | | 
 |__ |  _|___|_____|  19.8.1
 |___|_|             

User:   sjliang@nid00014
Date:   Mon Dec  2 15:33:41 2019
Arch:   x86_64
Pid:    5296
Python: 3.6.9
gpaw:   /global/homes/s/sjliang/.conda/envs/gpaw/lib/python3.6/site-packages/gpaw
_gpaw:  /global/homes/s/sjliang/.conda/envs/gpaw/bin/gpaw-python (54c2d0d863)
ase:    /global/homes/s/sjliang/.conda/envs/gpaw/lib/python3.6/site-packages/ase (version 3.18.1)
numpy:  /global/homes/s/sjliang/.conda/envs/gpaw/lib/python3.6/site-packages/numpy (version 1.17.4)
scipy:  /global/homes/s/sjliang/.conda/envs/gpaw/lib/python3.6/site-packages/scipy (version 1.3.1)
libxc:  4.2.3
units:  Angstrom and eV
cores:  1

Input parameters:
  eigensolver: rmm-diis
  hund: True
  mode: {ecut: 340.0,
         gammacentered: False,
         name: pw}
  occupations: {fixmagmom: True,
                name: fermi-dirac,
                width: 0.0}
  xc: PBE

System changes: positions, numbers, cell, pbc, initial_charges, initial_magmoms 

Initialize ...

H-setup:
  name: Hydrogen
  id: d65de229564ff8ea4db303e23b6d1ecf
  Z: 1
  valence: 1
  core: 0
  charge: 0.0
  file: /global/homes/s/sjliang/gpaw/gpaw-setups-0.9.20000/H.PBE
  compensation charges: gauss, rc=0.15, lmax=2
  cutoffs: 0.85(filt), 0.53(core),
  valence states:
                energy  radius
    1s(1.00)    -6.494   0.476
    *s          20.717   0.476
    *p           0.000   0.476

  Using partial waves for H as LCAO basis

Reference energy: -12.490162

Spin-polarized calculation.
Magnetic moment: 1.000000

Occupation numbers:
  Fixed magnetic moment
  Fermi-Dirac: width=0.0000 eV

Convergence criteria:
  Maximum total energy change: 0.0005 eV / electron
  Maximum integral of absolute density change: 0.0001 electrons
  Maximum integral of absolute eigenstate change: 4e-08 eV^2
  Maximum number of iterations: 333

Symmetries present (total): 1

  ( 1  0  0)
  ( 0  1  0)
  ( 0  0  1)

1 k-point (Gamma)
1 k-point in the irreducible part of the Brillouin zone
       k-points in crystal coordinates                weights
   0:     0.00000000    0.00000000    0.00000000          1/1

Wave functions: Plane wave expansion
  Cutoff energy: 340.000 eV
  Number of coefficients: 14243 (reduced to 7122)
  Pulay-stress correction: 0.000000 eV/Ang^3 (de/decut=0.000000)
  Using Numpy's FFT
  ScaLapack parameters: grid=1x1, blocksize=None
  Wavefunction extrapolation:
    Improved wavefunction reuse through dual PAW basis 

Eigensolver
   RMM-DIIS eigensolver
       keep_htpsit: True
       DIIS iterations: 3
       Threshold for DIIS: 1.0e-16
       Limit lambda: False
       use_rayleigh: False
       trial_step: 0.1 

Densities:
  Coarse grid: 45*45*45 grid
  Fine grid: 90*90*90 grid
  Total Charge: 0.000000 

Density mixing:
  Method: sum
  Backend: pulay
  Linear mixing parameter: 0.05
  Mixing with 5 old densities
  Damping of long wave oscillations: 50 

Hamiltonian:
  XC and Coulomb potentials evaluated on a 90*90*90 grid
  Using the PBE Exchange-Correlation functional
 

XC parameters: PBE with 2 nearest neighbor stencil

Memory estimate:
  Process memory now: 135.45 MiB
  Calculator: 67.83 MiB
    Density: 46.33 MiB
      Arrays: 24.33 MiB
      Localized functions: 15.04 MiB
      Mixer: 6.95 MiB
    Hamiltonian: 18.38 MiB
      Arrays: 18.08 MiB
      XC: 0.00 MiB
      Poisson: 0.00 MiB
      vbar: 0.31 MiB
    Wavefunctions: 3.12 MiB
      Arrays psit_nG: 0.22 MiB
      Eigensolver: 0.65 MiB
      Projections: 0.00 MiB
      Projectors: 0.38 MiB
      PW-descriptor: 1.87 MiB

Total number of cores used: 1

Number of atoms: 1
Number of atomic orbitals: 1
Number of bands in calculation: 1
Bands to converge: occupied states only
Number of valence electrons: 1

... initialized

Initializing position-dependent things.

Density initialized from atomic densities
Creating initial wave functions:
  1 band from LCAO basis set

       .------------------------.  
      /|                        |  
     / |                        |  
    /  |                        |  
   /   |                        |  
  /    |                        |  
 *     |                        |  
 |     |                        |  
 |     |                        |  
 |     |        H               |  
 |     |                        |  
 |     |                        |  
 |     .------------------------.  
 |    /                        /   
 |   /                        /    
 |  /                        /     
 | /                        /      
 |/                        /       
 *------------------------*        

Positions:
   0 H      5.000000    5.000000    5.000000    ( 0.0000,  0.0000,  1.0000)

Unit cell:
           periodic     x           y           z      points  spacing
  1. axis:    no    10.000000    0.000000    0.000000    45     0.2222
  2. axis:    no     0.000000   10.000100    0.000000    45     0.2222
  3. axis:    no     0.000000    0.000000   10.000200    45     0.2222

  Lengths:  10.000000  10.000100  10.000200
  Angles:   90.000000  90.000000  90.000000

Effective grid spacing dv^(1/3) = 0.2222

                     log10-error:    total        iterations:
           time      wfs    density  energy       fermi  poisson  magmom
iter:   1  15:33:44  +4.26   +inf    -1.041606    0               +1.0000
iter:   2  15:33:45  -1.63  -1.13     3.195751    0               +1.0000
iter:   3  15:33:46  -1.52  -1.11     7.007806    0               +1.0000
iter:   4  15:33:47  -0.99  -0.81     0.478581    0               +1.0000
iter:   5  15:33:48  -2.49  -2.40    -1.062194    0               +1.0000
iter:   6  15:33:49  -3.10  -1.98    -1.071052    0               +1.0000
iter:   7  15:33:50  -4.13  -2.59    -1.073301    0               +1.0000
iter:   8  15:33:50  -4.98  -2.69    -1.071165    0               +1.0000
iter:   9  15:33:51  -7.05  -2.61    -1.070950    0               +1.0000
iter:  10  15:33:52  -4.20  -2.63    -1.075914    0               +1.0000
iter:  11  15:33:53  -5.38  -3.82    -1.072176    0               +1.0000
iter:  12  15:33:54  -7.64  -3.80    -1.068996    0               +1.0000
iter:  13  15:33:55  -9.18  -3.81    -1.069088    0               +1.0000
iter:  14  15:33:56  -6.31  -3.86    -1.077062    0               +1.0000
iter:  15  15:33:57  -7.86  -4.05    -1.077019    0               +1.0000
iter:  16  15:33:58  -7.21  -4.36    -1.077127    0               +1.0000
iter:  17  15:33:59  -7.64  -5.50    -1.076991    0               +1.0000

Converged after 17 iterations.

Dipole moment: (-0.000000, 0.000001, 0.000002) |e|*Ang

Total magnetic moment: (0.000000, 0.000000, 1.000000)
Local magnetic moments:
   0 H  ( 0.000000,  0.000000,  0.262494)

Energy contributions relative to reference atoms: (reference = -12.490162)

Kinetic:         +1.083907
Potential:       -0.668698
External:        +0.000000
XC:              -1.488914
Entropy (-ST):   +0.000000
Local:           -0.003286
--------------------------
Free energy:     -1.076991
Extrapolated:    -1.076991

Spin contamination: 0.000004 electrons
                   Up                     Down
 Band  Eigenvalues  Occupancy  Eigenvalues  Occupancy
    0     -7.55024    1.00000      0.05977    0.00000

Writing to H.gpw (mode='')

