
  ___ ___ ___ _ _ _  
 |   |   |_  | | | | 
 | | | | | . | | | | 
 |__ |  _|___|_____|  19.8.1
 |___|_|             

User:   sjliang@nid00014
Date:   Mon Dec  2 15:33:59 2019
Arch:   x86_64
Pid:    5296
Python: 3.6.9
gpaw:   /global/homes/s/sjliang/.conda/envs/gpaw/lib/python3.6/site-packages/gpaw
_gpaw:  /global/homes/s/sjliang/.conda/envs/gpaw/bin/gpaw-python (54c2d0d863)
ase:    /global/homes/s/sjliang/.conda/envs/gpaw/lib/python3.6/site-packages/ase (version 3.18.1)
numpy:  /global/homes/s/sjliang/.conda/envs/gpaw/lib/python3.6/site-packages/numpy (version 1.17.4)
scipy:  /global/homes/s/sjliang/.conda/envs/gpaw/lib/python3.6/site-packages/scipy (version 1.3.1)
libxc:  4.2.3
units:  Angstrom and eV
cores:  1

Input parameters:
  hund: False

System changes: positions, numbers, cell, initial_magmoms, initial_charges 

Initialize ...

H-setup:
  name: Hydrogen
  id: d65de229564ff8ea4db303e23b6d1ecf
  Z: 1
  valence: 1
  core: 0
  charge: 0.0
  file: /global/homes/s/sjliang/gpaw/gpaw-setups-0.9.20000/H.PBE
  compensation charges: gauss, rc=0.15, lmax=2
  cutoffs: 0.85(filt), 0.53(core),
  valence states:
                energy  radius
    1s(1.00)    -6.494   0.476
    *s          20.717   0.476
    *p           0.000   0.476

  Using partial waves for H as LCAO basis

Reference energy: -24.980324

Spin-paired calculation

Occupation numbers:
  Fixed magnetic moment
  Fermi-Dirac: width=0.0000 eV

Convergence criteria:
  Maximum total energy change: 0.0005 eV / electron
  Maximum integral of absolute density change: 0.0001 electrons
  Maximum integral of absolute eigenstate change: 4e-08 eV^2
  Maximum number of iterations: 333

Symmetries present (total): 1

  ( 1  0  0)
  ( 0  1  0)
  ( 0  0  1)

1 k-point (Gamma)
1 k-point in the irreducible part of the Brillouin zone
       k-points in crystal coordinates                weights
   0:     0.00000000    0.00000000    0.00000000          1/1

Wave functions: Plane wave expansion
  Cutoff energy: 340.000 eV
  Number of coefficients: 14243 (reduced to 7122)
  Pulay-stress correction: 0.000000 eV/Ang^3 (de/decut=0.000000)
  Using Numpy's FFT
  ScaLapack parameters: grid=1x1, blocksize=None
  Wavefunction extrapolation:
    Improved wavefunction reuse through dual PAW basis 

Eigensolver
   RMM-DIIS eigensolver
       keep_htpsit: True
       DIIS iterations: 3
       Threshold for DIIS: 1.0e-16
       Limit lambda: False
       use_rayleigh: False
       trial_step: 0.1 

Densities:
  Coarse grid: 45*45*45 grid
  Fine grid: 90*90*90 grid
  Total Charge: 0.000000 

Density mixing:
  Method: separate
  Backend: pulay
  Linear mixing parameter: 0.05
  Mixing with 5 old densities
  Damping of long wave oscillations: 50 

Hamiltonian:
  XC and Coulomb potentials evaluated on a 90*90*90 grid
  Using the PBE Exchange-Correlation functional
 

XC parameters: PBE with 2 nearest neighbor stencil

Memory estimate:
  Process memory now: 287.85 MiB
  Calculator: 55.43 MiB
    Density: 40.07 MiB
      Arrays: 18.08 MiB
      Localized functions: 15.04 MiB
      Mixer: 6.95 MiB
    Hamiltonian: 12.13 MiB
      Arrays: 11.82 MiB
      XC: 0.00 MiB
      Poisson: 0.00 MiB
      vbar: 0.31 MiB
    Wavefunctions: 3.23 MiB
      Arrays psit_nG: 0.22 MiB
      Eigensolver: 0.76 MiB
      Projections: 0.00 MiB
      Projectors: 0.38 MiB
      PW-descriptor: 1.87 MiB

Total number of cores used: 1

Number of atoms: 2
Number of atomic orbitals: 2
Number of bands in calculation: 2
Bands to converge: occupied states only
Number of valence electrons: 2

... initialized

Initializing position-dependent things.

Density initialized from atomic densities
Creating initial wave functions:
  2 bands from LCAO basis set

       .------------------------.  
      /|                        |  
     / |                        |  
    /  |                        |  
   /   |                        |  
  /    |                        |  
 *     |                        |  
 |     |                        |  
 |     |                        |  
 |     |        HH              |  
 |     |                        |  
 |     |                        |  
 |     .------------------------.  
 |    /                        /   
 |   /                        /    
 |  /                        /     
 | /                        /      
 |/                        /       
 *------------------------*        

Positions:
   0 H      4.630000    5.000000    5.000000    ( 0.0000,  0.0000,  0.0000)
   1 H      5.370000    5.000000    5.000000    ( 0.0000,  0.0000,  0.0000)

Unit cell:
           periodic     x           y           z      points  spacing
  1. axis:    no    10.000000    0.000000    0.000000    45     0.2222
  2. axis:    no     0.000000   10.000000    0.000000    45     0.2222
  3. axis:    no     0.000000    0.000000   10.000000    45     0.2222

  Lengths:  10.000000  10.000000  10.000000
  Angles:   90.000000  90.000000  90.000000

Effective grid spacing dv^(1/3) = 0.2222

                     log10-error:    total        iterations:
           time      wfs    density  energy       fermi  poisson
iter:   1  15:34:00  +2.13   +inf    -4.780239    0             
iter:   2  15:34:01  +0.02  -0.39    -7.167557    0             
iter:   3  15:34:01  -0.02  -0.43    -6.605909    0             
iter:   4  15:34:02  -0.97  -1.07    -6.640598    0             
iter:   5  15:34:02  -3.01  -1.88    -6.648945    0             
iter:   6  15:34:03  -2.66  -1.85    -6.649278    0             
iter:   7  15:34:04  -3.19  -2.15    -6.649189    0             
iter:   8  15:34:04  -5.34  -3.51    -6.649247    0             
iter:   9  15:34:05  -5.10  -3.26    -6.649246    0             
iter:  10  15:34:05  -6.10  -3.63    -6.649246    0             
iter:  11  15:34:06  -8.51  -5.03    -6.649246    0             

Converged after 11 iterations.

Dipole moment: (-0.000000, 0.000000, 0.000000) |e|*Ang

Energy contributions relative to reference atoms: (reference = -24.980324)

Kinetic:         +6.252994
Potential:       -7.838179
External:        +0.000000
XC:              -5.057988
Entropy (-ST):   +0.000000
Local:           -0.006073
--------------------------
Free energy:     -6.649246
Extrapolated:    -6.649246

Fermi levels: inf, -inf

 Band  Eigenvalues  Occupancy
    0    -10.33354    2.00000
    1      0.40900    0.00000

Gap: 10.743 eV
Transition (v -> c):
  (s=0, k=0, n=0, [0.00, 0.00, 0.00]) -> (s=0, k=0, n=1, [0.00, 0.00, 0.00])
Writing to H2.gpw (mode='')

Timing:                              incl.     excl.
-----------------------------------------------------------
Hamiltonian:                         1.262     0.010   0.0% |
 Atomic:                             0.075     0.001   0.0% |
  XC Correction:                     0.074     0.074   0.3% |
 Calculate atomic Hamiltonians:      0.020     0.020   0.1% |
 Communicate:                        0.000     0.000   0.0% |
 Initialize Hamiltonian:             0.001     0.001   0.0% |
 Poisson:                            0.005     0.005   0.0% |
 XC 3D grid:                         1.151     1.151   4.6% |-|
LCAO initialization:                 0.026     0.008   0.0% |
 LCAO eigensolver:                   0.002     0.000   0.0% |
  Calculate projections:             0.000     0.000   0.0% |
  DenseAtomicCorrection:             0.000     0.000   0.0% |
  Distribute overlap matrix:         0.000     0.000   0.0% |
  Orbital Layouts:                   0.001     0.001   0.0% |
  Potential matrix:                  0.001     0.001   0.0% |
 LCAO to grid:                       0.010     0.010   0.0% |
 Set positions (LCAO WFS):           0.006     0.001   0.0% |
  Basic WFS set positions:           0.000     0.000   0.0% |
  Basis functions set positions:     0.000     0.000   0.0% |
  P tci:                             0.002     0.002   0.0% |
  ST tci:                            0.001     0.001   0.0% |
  mktci:                             0.003     0.003   0.0% |
PWDescriptor:                        0.021     0.021   0.1% |
SCF-cycle:                          20.398     0.071   0.3% |
 Density:                            1.951     0.000   0.0% |
  Atomic density matrices:           0.010     0.010   0.0% |
  Mix:                               1.718     1.718   6.8% |--|
  Multipole moments:                 0.002     0.002   0.0% |
  Pseudo density:                    0.221     0.220   0.9% |
   Symmetrize density:               0.000     0.000   0.0% |
 Hamiltonian:                       17.150     0.130   0.5% |
  Atomic:                            0.959     0.013   0.1% |
   XC Correction:                    0.946     0.946   3.8% |-|
  Calculate atomic Hamiltonians:     0.246     0.246   1.0% |
  Communicate:                       0.000     0.000   0.0% |
  Poisson:                           0.057     0.057   0.2% |
  XC 3D grid:                       15.758    15.758  62.5% |------------------------|
 Orthonormalize:                     0.039     0.003   0.0% |
  calc_s_matrix:                     0.009     0.009   0.0% |
  inverse-cholesky:                  0.007     0.007   0.0% |
  projections:                       0.019     0.019   0.1% |
  rotate_psi_s:                      0.002     0.002   0.0% |
 RMM-DIIS:                           0.828     0.016   0.1% |
  Apply H:                           0.333     0.331   1.3% ||
   HMM T:                            0.002     0.002   0.0% |
  Calculate residuals:               0.041     0.041   0.2% |
  DIIS step:                         0.397     0.005   0.0% |
   Calculate residuals:              0.371     0.038   0.2% |
    Apply H:                         0.333     0.331   1.3% ||
     HMM T:                          0.002     0.002   0.0% |
   Construct matrix:                 0.009     0.009   0.0% |
   Linear solve:                     0.003     0.003   0.0% |
   Update trial vectors:             0.007     0.007   0.0% |
   precondition:                     0.002     0.002   0.0% |
  Find lambda:                       0.009     0.009   0.0% |
  Update psi:                        0.003     0.003   0.0% |
  precondition:                      0.011     0.011   0.0% |
  projections:                       0.018     0.018   0.1% |
 Subspace diag:                      0.358     0.003   0.0% |
  calc_h_matrix:                     0.347     0.011   0.0% |
   Apply H:                          0.336     0.333   1.3% ||
    HMM T:                           0.003     0.003   0.0% |
  diagonalize:                       0.004     0.004   0.0% |
  rotate_psi:                        0.004     0.004   0.0% |
Set symmetry:                        0.002     0.002   0.0% |
Other:                               3.507     3.507  13.9% |-----|
-----------------------------------------------------------
Total:                                        25.215 100.0%

Memory usage: 295.11 MiB
Date: Mon Dec  2 15:34:06 2019
